<?xml version="1.0" encoding="UTF-8"?>

<!-- generated on 2024-04-01 16:07:29 by Eclipse SUMO GUI Version 1.19.0
<configuration xmlns:xsi="http://www.w3.org/2001/XMLSchema-instance" xsi:noNamespaceSchemaLocation="http://sumo.dlr.de/xsd/sumoConfiguration.xsd">

    <input>
        <net-file value="osm.net.xml.gz"/>
        <route-files value="osm.passenger.trips.xml"/>
        <additional-files value="osm.poly.xml.gz"/>
    </input>

    <output>
        <netstate-dump value="my_dump_file.xml"/>
        <emission-output value="my_emission_file.xml"/>
        <fcd-output value="sumoTrace.xml"/>
        <tripinfo-output value="tripinfo.xml"/>
        <lanechange-output value="my_lane_change_file.xml"/>
    </output>

    <time>
        <begin value="0"/>
        <end value="500"/>
    </time>

    <report>
        <verbose value="true"/>
        <no-step-log value="true"/>
    </report>

    <traci_server>
        <remote-port value="63857"/>
    </traci_server>

</configuration>
-->

<tripinfos xmlns:xsi="http://www.w3.org/2001/XMLSchema-instance" xsi:noNamespaceSchemaLocation="http://sumo.dlr.de/xsd/tripinfo_file.xsd">
    <tripinfo id="veh2" depart="3.00" departLane="885409870#1_0" departPos="5.10" departSpeed="0.00" departDelay="0.77" arrival="59.00" arrivalLane="885380945#4_1" arrivalPos="123.81" arrivalSpeed="27.30" duration="56.00" routeLength="806.71" waitingTime="0.00" waitingCount="0" stopTime="0.00" timeLoss="22.53" rerouteNo="1" devices="tripinfo_veh2 routing_veh2 emissions_veh2 fcd_veh2" vType="veh_passenger" speedFactor="1.01" vaporized="">
        <emissions CO_abs="6392.999975" CO2_abs="388204.002565" HC_abs="38.580404" PMx_abs="8.427877" NOx_abs="165.492107" fuel_abs="123817.992840" electricity_abs="0"/>
    </tripinfo>
    <tripinfo id="veh10" depart="12.00" departLane="889162219#3_0" departPos="5.10" departSpeed="0.00" departDelay="0.87" arrival="76.00" arrivalLane="889119738#2_0" arrivalPos="20.12" arrivalSpeed="15.11" duration="64.00" routeLength="1027.37" waitingTime="0.00" waitingCount="0" stopTime="0.00" timeLoss="19.81" rerouteNo="1" devices="tripinfo_veh10 routing_veh10 emissions_veh10 fcd_veh10" vType="veh_passenger" speedFactor="1.09" vaporized="">
        <emissions CO_abs="6078.861808" CO2_abs="383174.843721" HC_abs="36.918610" PMx_abs="8.197868" NOx_abs="160.401401" fuel_abs="122214.072636" electricity_abs="0"/>
    </tripinfo>
    <tripinfo id="veh34" depart="38.00" departLane="888160860#2_0" departPos="5.10" departSpeed="0.00" departDelay="0.17" arrival="86.00" arrivalLane="-888160868#1_0" arrivalPos="45.15" arrivalSpeed="15.30" duration="48.00" routeLength="529.35" waitingTime="0.00" waitingCount="0" stopTime="0.00" timeLoss="19.78" rerouteNo="1" devices="tripinfo_veh34 routing_veh34 emissions_veh34 fcd_veh34" vType="veh_passenger" speedFactor="1.17" vaporized="">
        <emissions CO_abs="4504.173847" CO2_abs="268389.737827" HC_abs="26.960276" PMx_abs="5.518314" NOx_abs="114.707070" fuel_abs="85603.358914" electricity_abs="0"/>
    </tripinfo>
    <tripinfo id="veh6" depart="7.00" departLane="885380937#1_0" departPos="5.10" departSpeed="0.00" departDelay="0.32" arrival="97.00" arrivalLane="447791045#1_0" arrivalPos="412.75" arrivalSpeed="28.62" duration="90.00" routeLength="1867.68" waitingTime="0.00" waitingCount="0" stopTime="0.00" timeLoss="21.71" rerouteNo="1" devices="tripinfo_veh6 routing_veh6 emissions_veh6 fcd_veh6" vType="veh_passenger" speedFactor="1.05" vaporized="">
        <emissions CO_abs="10123.231077" CO2_abs="650619.567578" HC_abs="62.016238" PMx_abs="14.358906" NOx_abs="267.015902" fuel_abs="207515.901468" electricity_abs="0"/>
    </tripinfo>
    <tripinfo id="veh32" depart="36.00" departLane="-888160868#2_0" departPos="5.10" departSpeed="0.00" departDelay="0.40" arrival="104.00" arrivalLane="888155717#3_0" arrivalPos="67.80" arrivalSpeed="15.73" duration="68.00" routeLength="1111.54" waitingTime="0.00" waitingCount="0" stopTime="0.00" timeLoss="22.61" rerouteNo="1" devices="tripinfo_veh32 routing_veh32 emissions_veh32 fcd_veh32" vType="veh_passenger" speedFactor="1.15" vaporized="">
        <emissions CO_abs="8508.702539" CO2_abs="477829.299978" HC_abs="50.470518" PMx_abs="10.765020" NOx_abs="205.302040" fuel_abs="152404.090866" electricity_abs="0"/>
    </tripinfo>
    <tripinfo id="veh0" depart="0.00" departLane="885380933_0" departPos="5.10" departSpeed="29.45" departDelay="0.00" arrival="105.00" arrivalLane="-1202728905#0_0" arrivalPos="13.66" arrivalSpeed="10.37" duration="105.00" routeLength="1864.44" waitingTime="3.00" waitingCount="1" stopTime="0.00" timeLoss="29.03" rerouteNo="1" devices="tripinfo_veh0 routing_veh0 emissions_veh0 fcd_veh0" vType="veh_passenger" speedFactor="1.06" vaporized="">
        <emissions CO_abs="8738.026153" CO2_abs="529031.693059" HC_abs="52.646306" PMx_abs="11.330260" NOx_abs="215.065607" fuel_abs="168735.969763" electricity_abs="0"/>
    </tripinfo>
    <tripinfo id="veh1" depart="2.00" departLane="-888155727#0_0" departPos="5.10" departSpeed="0.00" departDelay="0.89" arrival="108.00" arrivalLane="887771598#3_0" arrivalPos="108.60" arrivalSpeed="12.33" duration="106.00" routeLength="1253.77" waitingTime="0.00" waitingCount="0" stopTime="0.00" timeLoss="20.40" rerouteNo="1" devices="tripinfo_veh1 routing_veh1 emissions_veh1 fcd_veh1" vType="veh_passenger" speedFactor="0.94" vaporized="">
        <emissions CO_abs="5433.227013" CO2_abs="391829.264438" HC_abs="33.688146" PMx_abs="6.955049" NOx_abs="158.401824" fuel_abs="124975.240179" electricity_abs="0"/>
    </tripinfo>
    <tripinfo id="veh40" depart="45.00" departLane="-889504806#1_0" departPos="5.10" departSpeed="0.00" departDelay="0.50" arrival="108.00" arrivalLane="-887771596#0_0" arrivalPos="29.83" arrivalSpeed="12.15" duration="63.00" routeLength="819.41" waitingTime="0.00" waitingCount="0" stopTime="0.00" timeLoss="16.25" rerouteNo="1" devices="tripinfo_veh40 routing_veh40 emissions_veh40 fcd_veh40" vType="veh_passenger" speedFactor="0.90" vaporized="">
        <emissions CO_abs="4335.030414" CO2_abs="278203.158660" HC_abs="26.418731" PMx_abs="5.437027" NOx_abs="114.610510" fuel_abs="88733.665315" electricity_abs="0"/>
    </tripinfo>
    <tripinfo id="veh26" depart="29.00" departLane="-885389918#0_0" departPos="5.10" departSpeed="0.00" departDelay="0.07" arrival="109.00" arrivalLane="-885395971#0_0" arrivalPos="172.00" arrivalSpeed="11.75" duration="80.00" routeLength="941.26" waitingTime="0.00" waitingCount="0" stopTime="0.00" timeLoss="20.44" rerouteNo="1" devices="tripinfo_veh26 routing_veh26 emissions_veh26 fcd_veh26" vType="veh_passenger" speedFactor="0.87" vaporized="">
        <emissions CO_abs="4997.595711" CO2_abs="313403.603863" HC_abs="30.109062" PMx_abs="5.930716" NOx_abs="128.120197" fuel_abs="99961.162096" electricity_abs="0"/>
    </tripinfo>
    <tripinfo id="veh4" depart="5.00" departLane="-887771595#0_0" departPos="5.10" departSpeed="0.00" departDelay="0.55" arrival="118.00" arrivalLane="-444358759#6_0" arrivalPos="20.53" arrivalSpeed="13.21" duration="113.00" routeLength="1679.21" waitingTime="4.00" waitingCount="1" stopTime="0.00" timeLoss="35.34" rerouteNo="1" devices="tripinfo_veh4 routing_veh4 emissions_veh4 fcd_veh4" vType="veh_passenger" speedFactor="1.03" vaporized="">
        <emissions CO_abs="10232.271268" CO2_abs="625926.522976" HC_abs="61.643752" PMx_abs="13.163747" NOx_abs="261.064506" fuel_abs="199640.422005" electricity_abs="0"/>
    </tripinfo>
    <tripinfo id="veh14" depart="16.00" departLane="-445291914#1_1" departPos="5.10" departSpeed="0.00" departDelay="0.42" arrival="134.00" arrivalLane="891208434#6_1" arrivalPos="15.12" arrivalSpeed="26.49" duration="118.00" routeLength="1628.73" waitingTime="0.00" waitingCount="0" stopTime="0.00" timeLoss="15.88" rerouteNo="1" devices="tripinfo_veh14 routing_veh14 emissions_veh14 fcd_veh14" vType="veh_passenger" speedFactor="0.99" vaporized="">
        <emissions CO_abs="7810.366019" CO2_abs="488328.831769" HC_abs="47.312725" PMx_abs="9.619075" NOx_abs="196.835811" fuel_abs="155754.236078" electricity_abs="0"/>
    </tripinfo>
    <tripinfo id="veh69" depart="77.00" departLane="-888155716#3_0" departPos="0.20" departSpeed="0.00" departDelay="0.24" arrival="139.00" arrivalLane="444357950#11_1" arrivalPos="0.20" arrivalSpeed="25.09" duration="62.00" routeLength="920.62" waitingTime="0.00" waitingCount="0" stopTime="0.00" timeLoss="11.44" rerouteNo="1" devices="tripinfo_veh69 routing_veh69 emissions_veh69 fcd_veh69" vType="veh_passenger" speedFactor="0.91" vaporized="">
        <emissions CO_abs="4116.913670" CO2_abs="289811.130200" HC_abs="25.452203" PMx_abs="5.518794" NOx_abs="115.642792" fuel_abs="92436.132178" electricity_abs="0"/>
    </tripinfo>
    <tripinfo id="veh29" depart="33.00" departLane="-472714557#5_0" departPos="5.10" departSpeed="0.00" departDelay="0.74" arrival="150.00" arrivalLane="885380946#2_0" arrivalPos="81.88" arrivalSpeed="30.60" duration="117.00" routeLength="1669.53" waitingTime="2.00" waitingCount="1" stopTime="0.00" timeLoss="27.84" rerouteNo="1" devices="tripinfo_veh29 routing_veh29 emissions_veh29 fcd_veh29" vType="veh_passenger" speedFactor="1.13" vaporized="">
        <emissions CO_abs="11058.883412" CO2_abs="623261.800064" HC_abs="65.570613" PMx_abs="13.237927" NOx_abs="257.784166" fuel_abs="198791.177300" electricity_abs="0"/>
    </tripinfo>
    <tripinfo id="veh62" depart="69.00" departLane="888160862_0" departPos="5.10" departSpeed="0.00" departDelay="0.02" arrival="150.00" arrivalLane="888155727#0_0" arrivalPos="55.73" arrivalSpeed="14.05" duration="81.00" routeLength="987.71" waitingTime="0.00" waitingCount="0" stopTime="0.00" timeLoss="21.80" rerouteNo="1" devices="tripinfo_veh62 routing_veh62 emissions_veh62 fcd_veh62" vType="veh_passenger" speedFactor="1.08" vaporized="">
        <emissions CO_abs="5985.744718" CO2_abs="384063.962813" HC_abs="36.252959" PMx_abs="7.660980" NOx_abs="161.950384" fuel_abs="122497.834574" electricity_abs="0"/>
    </tripinfo>
    <tripinfo id="veh13" depart="15.00" departLane="887815454#2_0" departPos="5.10" departSpeed="0.00" departDelay="0.54" arrival="151.00" arrivalLane="885395971#1_0" arrivalPos="36.73" arrivalSpeed="14.24" duration="136.00" routeLength="2596.21" waitingTime="0.00" waitingCount="0" stopTime="0.00" timeLoss="37.19" rerouteNo="1" devices="tripinfo_veh13 routing_veh13 emissions_veh13 fcd_veh13" vType="veh_passenger" speedFactor="1.12" vaporized="">
        <emissions CO_abs="15061.729367" CO2_abs="923909.118117" HC_abs="91.372839" PMx_abs="20.482370" NOx_abs="382.490565" fuel_abs="294682.092185" electricity_abs="0"/>
    </tripinfo>
    <tripinfo id="veh18" depart="21.00" departLane="885384073#5_1" departPos="5.10" departSpeed="0.00" departDelay="0.97" arrival="155.00" arrivalLane="-301007097#3_0" arrivalPos="53.23" arrivalSpeed="12.04" duration="134.00" routeLength="1919.95" waitingTime="0.00" waitingCount="0" stopTime="0.00" timeLoss="31.97" rerouteNo="1" devices="tripinfo_veh18 routing_veh18 emissions_veh18 fcd_veh18" vType="veh_passenger" speedFactor="0.94" vaporized="">
        <emissions CO_abs="9238.545628" CO2_abs="594465.282333" HC_abs="56.199411" PMx_abs="11.972186" NOx_abs="243.944501" fuel_abs="189606.118268" electricity_abs="0"/>
    </tripinfo>
    <tripinfo id="veh16" depart="18.00" departLane="-888155715#2_0" departPos="5.10" departSpeed="0.00" departDelay="0.20" arrival="156.00" arrivalLane="885354449#1_0" arrivalPos="33.18" arrivalSpeed="10.94" duration="138.00" routeLength="1713.44" waitingTime="0.00" waitingCount="0" stopTime="0.00" timeLoss="28.26" rerouteNo="1" devices="tripinfo_veh16 routing_veh16 emissions_veh16 fcd_veh16" vType="veh_passenger" speedFactor="0.88" vaporized="">
        <emissions CO_abs="7606.809917" CO2_abs="535338.439479" HC_abs="46.972035" PMx_abs="9.648922" NOx_abs="214.441027" fuel_abs="170748.091507" electricity_abs="0"/>
    </tripinfo>
    <tripinfo id="veh43" depart="48.00" departLane="-472714577#0_0" departPos="5.10" departSpeed="0.00" departDelay="0.16" arrival="158.00" arrivalLane="885354458_0" arrivalPos="111.75" arrivalSpeed="15.12" duration="110.00" routeLength="1289.68" waitingTime="0.00" waitingCount="0" stopTime="0.00" timeLoss="20.99" rerouteNo="1" devices="tripinfo_veh43 routing_veh43 emissions_veh43 fcd_veh43" vType="veh_passenger" speedFactor="1.09" vaporized="">
        <emissions CO_abs="7492.464846" CO2_abs="460745.579728" HC_abs="44.983850" PMx_abs="8.918591" NOx_abs="190.658941" fuel_abs="146956.225845" electricity_abs="0"/>
    </tripinfo>
    <tripinfo id="veh27" depart="31.00" departLane="885389911#2_0" departPos="5.10" departSpeed="0.00" departDelay="0.96" arrival="166.00" arrivalLane="-889162219#1_0" arrivalPos="20.17" arrivalSpeed="25.23" duration="135.00" routeLength="1833.52" waitingTime="0.00" waitingCount="0" stopTime="0.00" timeLoss="25.68" rerouteNo="1" devices="tripinfo_veh27 routing_veh27 emissions_veh27 fcd_veh27" vType="veh_passenger" speedFactor="0.92" vaporized="">
        <emissions CO_abs="7751.240677" CO2_abs="570425.289919" HC_abs="48.488389" PMx_abs="10.551804" NOx_abs="230.232343" fuel_abs="181938.652844" electricity_abs="0"/>
    </tripinfo>
    <tripinfo id="veh35" depart="39.00" departLane="885380939#0_0" departPos="5.10" departSpeed="0.00" departDelay="0.06" arrival="167.00" arrivalLane="889441218#0_1" arrivalPos="46.38" arrivalSpeed="14.95" duration="128.00" routeLength="2029.81" waitingTime="0.00" waitingCount="0" stopTime="0.00" timeLoss="37.06" rerouteNo="1" devices="tripinfo_veh35 routing_veh35 emissions_veh35 fcd_veh35" vType="veh_passenger" speedFactor="0.99" vaporized="">
        <emissions CO_abs="10890.108563" CO2_abs="714703.238159" HC_abs="66.794245" PMx_abs="14.784637" NOx_abs="296.311380" fuel_abs="227955.713964" electricity_abs="0"/>
    </tripinfo>
    <tripinfo id="veh49" depart="55.00" departLane="885380945#4_1" departPos="5.10" departSpeed="0.00" departDelay="0.49" arrival="169.00" arrivalLane="447791042_0" arrivalPos="36.25" arrivalSpeed="24.31" duration="114.00" routeLength="2149.71" waitingTime="0.00" waitingCount="0" stopTime="0.00" timeLoss="22.03" rerouteNo="1" devices="tripinfo_veh49 routing_veh49 emissions_veh49 fcd_veh49" vType="veh_passenger" speedFactor="0.88" vaporized="">
        <emissions CO_abs="8073.537726" CO2_abs="604792.624504" HC_abs="50.709543" PMx_abs="12.066779" NOx_abs="239.452096" fuel_abs="192899.752951" electricity_abs="0"/>
    </tripinfo>
    <tripinfo id="veh117" depart="131.00" departLane="444361593#2_0" departPos="5.10" departSpeed="0.00" departDelay="0.84" arrival="169.00" arrivalLane="889138277#2_0" arrivalPos="22.25" arrivalSpeed="30.24" duration="38.00" routeLength="596.76" waitingTime="0.00" waitingCount="0" stopTime="0.00" timeLoss="14.08" rerouteNo="1" devices="tripinfo_veh117 routing_veh117 emissions_veh117 fcd_veh117" vType="veh_passenger" speedFactor="1.10" vaporized="">
        <emissions CO_abs="6068.209053" CO2_abs="347571.048941" HC_abs="36.166362" PMx_abs="7.892594" NOx_abs="150.430545" fuel_abs="110857.902062" electricity_abs="0"/>
    </tripinfo>
    <tripinfo id="veh61" depart="68.00" departLane="-119045603#0_0" departPos="5.10" departSpeed="0.00" departDelay="0.14" arrival="172.00" arrivalLane="-889135582#1_0" arrivalPos="62.72" arrivalSpeed="13.42" duration="104.00" routeLength="1906.13" waitingTime="0.00" waitingCount="0" stopTime="0.00" timeLoss="25.06" rerouteNo="1" devices="tripinfo_veh61 routing_veh61 emissions_veh61 fcd_veh61" vType="veh_passenger" speedFactor="0.97" vaporized="">
        <emissions CO_abs="9367.618548" CO2_abs="635098.920908" HC_abs="58.082127" PMx_abs="13.542348" NOx_abs="261.233750" fuel_abs="202565.492384" electricity_abs="0"/>
    </tripinfo>
    <tripinfo id="veh45" depart="51.00" departLane="-444357950#11_1" departPos="0.20" departSpeed="0.00" departDelay="0.94" arrival="175.00" arrivalLane="-889162219#3_0" arrivalPos="15.45" arrivalSpeed="28.05" duration="124.00" routeLength="1678.10" waitingTime="3.00" waitingCount="1" stopTime="0.00" timeLoss="42.03" rerouteNo="1" devices="tripinfo_veh45 routing_veh45 emissions_veh45 fcd_veh45" vType="veh_passenger" speedFactor="1.04" vaporized="">
        <emissions CO_abs="10253.204839" CO2_abs="649626.749474" HC_abs="61.923663" PMx_abs="13.100686" NOx_abs="269.171063" fuel_abs="207199.796502" electricity_abs="0"/>
    </tripinfo>
    <tripinfo id="veh39" depart="44.00" departLane="472717507#1_0" departPos="5.10" departSpeed="0.00" departDelay="0.61" arrival="179.00" arrivalLane="889119739#2_0" arrivalPos="68.79" arrivalSpeed="14.51" duration="135.00" routeLength="2262.05" waitingTime="0.00" waitingCount="0" stopTime="0.00" timeLoss="34.67" rerouteNo="1" devices="tripinfo_veh39 routing_veh39 emissions_veh39 fcd_veh39" vType="veh_passenger" speedFactor="1.10" vaporized="">
        <emissions CO_abs="13618.392118" CO2_abs="841220.557560" HC_abs="82.518452" PMx_abs="18.222222" NOx_abs="351.813471" fuel_abs="268308.378752" electricity_abs="0"/>
    </tripinfo>
    <tripinfo id="veh66" depart="74.00" departLane="444357950#6_0" departPos="5.10" departSpeed="0.00" departDelay="0.57" arrival="186.00" arrivalLane="885773074_0" arrivalPos="52.00" arrivalSpeed="12.89" duration="112.00" routeLength="1807.55" waitingTime="0.00" waitingCount="0" stopTime="0.00" timeLoss="26.77" rerouteNo="1" devices="tripinfo_veh66 routing_veh66 emissions_veh66 fcd_veh66" vType="veh_passenger" speedFactor="0.94" vaporized="">
        <emissions CO_abs="8378.523238" CO2_abs="584711.204037" HC_abs="51.826130" PMx_abs="11.781025" NOx_abs="236.757102" fuel_abs="186494.732355" electricity_abs="0"/>
    </tripinfo>
    <tripinfo id="veh99" depart="117.00" departLane="-889504806#4_0" departPos="5.10" departSpeed="0.00" departDelay="6.86" arrival="188.00" arrivalLane="-326546173#1_0" arrivalPos="166.59" arrivalSpeed="7.28" duration="71.00" routeLength="840.02" waitingTime="2.00" waitingCount="1" stopTime="0.00" timeLoss="23.25" rerouteNo="1" devices="tripinfo_veh99 routing_veh99 emissions_veh99 fcd_veh99" vType="veh_passenger" speedFactor="1.01" vaporized="">
        <emissions CO_abs="5654.681563" CO2_abs="309817.982146" HC_abs="33.165089" PMx_abs="6.302805" NOx_abs="129.158533" fuel_abs="98817.544221" electricity_abs="0"/>
    </tripinfo>
    <tripinfo id="veh30" depart="34.00" departLane="888155726#1_0" departPos="5.10" departSpeed="0.00" departDelay="0.62" arrival="189.00" arrivalLane="887776077#1_0" arrivalPos="34.48" arrivalSpeed="12.15" duration="155.00" routeLength="2063.45" waitingTime="0.00" waitingCount="0" stopTime="0.00" timeLoss="34.80" rerouteNo="1" devices="tripinfo_veh30 routing_veh30 emissions_veh30 fcd_veh30" vType="veh_passenger" speedFactor="0.93" vaporized="">
        <emissions CO_abs="10606.443434" CO2_abs="726121.611843" HC_abs="65.338266" PMx_abs="14.182751" NOx_abs="300.884389" fuel_abs="231597.850877" electricity_abs="0"/>
    </tripinfo>
    <tripinfo id="veh90" depart="101.00" departLane="885409871#5_0" departPos="5.10" departSpeed="0.00" departDelay="0.87" arrival="189.00" arrivalLane="119045605#3_1" arrivalPos="314.97" arrivalSpeed="28.54" duration="88.00" routeLength="1506.92" waitingTime="0.00" waitingCount="0" stopTime="0.00" timeLoss="31.21" rerouteNo="1" devices="tripinfo_veh90 routing_veh90 emissions_veh90 fcd_veh90" vType="veh_passenger" speedFactor="1.04" vaporized="">
        <emissions CO_abs="10381.597610" CO2_abs="643588.485731" HC_abs="63.032456" PMx_abs="14.137389" NOx_abs="270.460169" fuel_abs="205273.139883" electricity_abs="0"/>
    </tripinfo>
    <tripinfo id="veh12" depart="14.00" departLane="888155729#4_0" departPos="2.71" departSpeed="0.00" departDelay="0.65" arrival="190.00" arrivalLane="720356474#3_1" arrivalPos="266.76" arrivalSpeed="28.01" duration="176.00" routeLength="2637.40" waitingTime="5.00" waitingCount="2" stopTime="0.00" timeLoss="55.89" rerouteNo="1" devices="tripinfo_veh12 routing_veh12 emissions_veh12 fcd_veh12" vType="veh_passenger" speedFactor="1.05" vaporized="">
        <emissions CO_abs="14896.396629" CO2_abs="927478.485799" HC_abs="90.116440" PMx_abs="19.230251" NOx_abs="382.475128" fuel_abs="295821.323268" electricity_abs="0"/>
    </tripinfo>
    <tripinfo id="veh109" depart="124.00" departLane="444357950#10_0" departPos="5.10" departSpeed="0.00" departDelay="2.74" arrival="192.00" arrivalLane="-888157365_0" arrivalPos="43.97" arrivalSpeed="13.97" duration="68.00" routeLength="548.92" waitingTime="0.00" waitingCount="0" stopTime="0.00" timeLoss="17.71" rerouteNo="1" devices="tripinfo_veh109 routing_veh109 emissions_veh109 fcd_veh109" vType="veh_passenger" speedFactor="1.01" vaporized="">
        <emissions CO_abs="4472.167413" CO2_abs="227680.042255" HC_abs="25.668741" PMx_abs="4.214076" NOx_abs="95.004472" fuel_abs="72619.814217" electricity_abs="0"/>
    </tripinfo>
    <tripinfo id="veh111" depart="124.00" departLane="444509134#1_0" departPos="3.11" departSpeed="0.00" departDelay="0.51" arrival="194.00" arrivalLane="-885395971#1_0" arrivalPos="37.69" arrivalSpeed="14.48" duration="70.00" routeLength="1084.82" waitingTime="0.00" waitingCount="0" stopTime="0.00" timeLoss="27.99" rerouteNo="1" devices="tripinfo_veh111 routing_veh111 emissions_veh111 fcd_veh111" vType="veh_passenger" speedFactor="1.06" vaporized="">
        <emissions CO_abs="7438.815997" CO2_abs="450562.417709" HC_abs="44.843904" PMx_abs="9.817125" NOx_abs="192.043413" fuel_abs="143707.249543" electricity_abs="0"/>
    </tripinfo>
    <tripinfo id="veh54" depart="61.00" departLane="444357950#0_0" departPos="5.10" departSpeed="0.00" departDelay="0.92" arrival="196.00" arrivalLane="-885389925_0" arrivalPos="50.54" arrivalSpeed="13.97" duration="135.00" routeLength="2524.33" waitingTime="0.00" waitingCount="0" stopTime="0.00" timeLoss="40.00" rerouteNo="1" devices="tripinfo_veh54 routing_veh54 emissions_veh54 fcd_veh54" vType="veh_passenger" speedFactor="1.10" vaporized="">
        <emissions CO_abs="14071.643140" CO2_abs="875805.370625" HC_abs="85.598239" PMx_abs="19.260559" NOx_abs="362.796148" fuel_abs="279339.284282" electricity_abs="0"/>
    </tripinfo>
    <tripinfo id="veh81" depart="91.00" departLane="-885768951_0" departPos="5.10" departSpeed="0.00" departDelay="0.89" arrival="203.00" arrivalLane="-840315695#1_0" arrivalPos="100.28" arrivalSpeed="13.54" duration="112.00" routeLength="1687.50" waitingTime="0.00" waitingCount="0" stopTime="0.00" timeLoss="34.56" rerouteNo="1" devices="tripinfo_veh81 routing_veh81 emissions_veh81 fcd_veh81" vType="veh_passenger" speedFactor="1.01" vaporized="">
        <emissions CO_abs="10763.571816" CO2_abs="673131.445839" HC_abs="65.306841" PMx_abs="14.350926" NOx_abs="283.562700" fuel_abs="214696.025258" electricity_abs="0"/>
    </tripinfo>
    <tripinfo id="veh50" depart="56.00" departLane="-888155717#0_0" departPos="5.10" departSpeed="0.00" departDelay="0.37" arrival="205.00" arrivalLane="885380937#3_1" arrivalPos="11.23" arrivalSpeed="7.77" duration="149.00" routeLength="1925.86" waitingTime="0.00" waitingCount="0" stopTime="0.00" timeLoss="30.19" rerouteNo="1" devices="tripinfo_veh50 routing_veh50 emissions_veh50 fcd_veh50" vType="veh_passenger" speedFactor="0.85" vaporized="">
        <emissions CO_abs="8069.909739" CO2_abs="570047.724928" HC_abs="49.856079" PMx_abs="10.367523" NOx_abs="229.050441" fuel_abs="181818.580060" electricity_abs="0"/>
    </tripinfo>
    <tripinfo id="veh78" depart="87.00" departLane="-887775249#0_0" departPos="5.10" departSpeed="0.00" departDelay="0.22" arrival="205.00" arrivalLane="889119747#3_0" arrivalPos="59.47" arrivalSpeed="13.45" duration="118.00" routeLength="1932.51" waitingTime="0.00" waitingCount="0" stopTime="0.00" timeLoss="31.11" rerouteNo="1" devices="tripinfo_veh78 routing_veh78 emissions_veh78 fcd_veh78" vType="veh_passenger" speedFactor="0.98" vaporized="">
        <emissions CO_abs="9568.365804" CO2_abs="628439.139134" HC_abs="58.715320" PMx_abs="13.060790" NOx_abs="258.126976" fuel_abs="200441.780059" electricity_abs="0"/>
    </tripinfo>
    <tripinfo id="veh24" depart="27.00" departLane="-888155717#1_0" departPos="5.10" departSpeed="0.00" departDelay="0.30" arrival="207.00" arrivalLane="889138277#3_0" arrivalPos="31.97" arrivalSpeed="23.72" duration="180.00" routeLength="2686.92" waitingTime="0.00" waitingCount="0" stopTime="0.00" timeLoss="34.48" rerouteNo="1" devices="tripinfo_veh24 routing_veh24 emissions_veh24 fcd_veh24" vType="veh_passenger" speedFactor="0.89" vaporized="">
        <emissions CO_abs="10816.688625" CO2_abs="803770.712170" HC_abs="68.181634" PMx_abs="15.472829" NOx_abs="325.432544" fuel_abs="256364.295797" electricity_abs="0"/>
    </tripinfo>
    <tripinfo id="veh28" depart="32.00" departLane="891820957#0_0" departPos="5.10" departSpeed="0.00" departDelay="0.85" arrival="207.00" arrivalLane="885380937#2_1" arrivalPos="203.01" arrivalSpeed="26.08" duration="175.00" routeLength="2070.47" waitingTime="0.00" waitingCount="0" stopTime="0.00" timeLoss="27.86" rerouteNo="1" devices="tripinfo_veh28 routing_veh28 emissions_veh28 fcd_veh28" vType="veh_passenger" speedFactor="0.95" vaporized="">
        <emissions CO_abs="10565.741119" CO2_abs="633950.515046" HC_abs="62.974594" PMx_abs="11.781825" NOx_abs="253.493186" fuel_abs="202201.627597" electricity_abs="0"/>
    </tripinfo>
    <tripinfo id="veh104" depart="116.00" departLane="-472714557#3_0" departPos="5.10" departSpeed="0.00" departDelay="0.30" arrival="207.00" arrivalLane="-1044719303#0_0" arrivalPos="242.13" arrivalSpeed="12.54" duration="91.00" routeLength="911.65" waitingTime="0.00" waitingCount="0" stopTime="0.00" timeLoss="15.29" rerouteNo="1" devices="tripinfo_veh104 routing_veh104 emissions_veh104 fcd_veh104" vType="veh_passenger" speedFactor="0.96" vaporized="">
        <emissions CO_abs="4254.384490" CO2_abs="264735.467989" HC_abs="25.400786" PMx_abs="4.402146" NOx_abs="105.464503" fuel_abs="84438.900005" electricity_abs="0"/>
    </tripinfo>
    <tripinfo id="veh122" depart="136.00" departLane="444357950#9_0" departPos="5.10" departSpeed="0.00" departDelay="0.27" arrival="211.00" arrivalLane="-301007089#1_0" arrivalPos="27.39" arrivalSpeed="14.11" duration="75.00" routeLength="867.66" waitingTime="0.00" waitingCount="0" stopTime="0.00" timeLoss="20.15" rerouteNo="1" devices="tripinfo_veh122 routing_veh122 emissions_veh122 fcd_veh122" vType="veh_passenger" speedFactor="1.07" vaporized="">
        <emissions CO_abs="4602.676410" CO2_abs="306180.981818" HC_abs="28.076863" PMx_abs="5.715079" NOx_abs="126.403909" fuel_abs="97657.281374" electricity_abs="0"/>
    </tripinfo>
    <tripinfo id="veh129" depart="151.00" departLane="720356475#4_1" departPos="5.10" departSpeed="0.00" departDelay="7.49" arrival="213.00" arrivalLane="891826630_0" arrivalPos="13.68" arrivalSpeed="14.75" duration="62.00" routeLength="945.80" waitingTime="0.00" waitingCount="0" stopTime="0.00" timeLoss="22.79" rerouteNo="1" devices="tripinfo_veh129 routing_veh129 emissions_veh129 fcd_veh129" vType="veh_passenger" speedFactor="1.03" vaporized="">
        <emissions CO_abs="6061.805354" CO2_abs="382193.322190" HC_abs="36.875038" PMx_abs="8.150394" NOx_abs="160.516002" fuel_abs="121901.006462" electricity_abs="0"/>
    </tripinfo>
    <tripinfo id="veh68" depart="76.00" departLane="301007092_1" departPos="5.10" departSpeed="0.00" departDelay="0.35" arrival="214.00" arrivalLane="472714557#2_0" arrivalPos="66.91" arrivalSpeed="7.26" duration="138.00" routeLength="1517.28" waitingTime="23.00" waitingCount="2" stopTime="0.00" timeLoss="59.30" rerouteNo="1" devices="tripinfo_veh68 routing_veh68 emissions_veh68 fcd_veh68" vType="veh_passenger" speedFactor="0.91" vaporized="">
        <emissions CO_abs="12890.250259" CO2_abs="606400.449385" HC_abs="73.156497" PMx_abs="12.562254" NOx_abs="253.911196" fuel_abs="193414.487390" electricity_abs="0"/>
    </tripinfo>
    <tripinfo id="veh92" depart="103.00" departLane="-887817819_0" departPos="5.10" departSpeed="0.00" departDelay="0.65" arrival="214.00" arrivalLane="889135578#1_0" arrivalPos="303.03" arrivalSpeed="27.13" duration="111.00" routeLength="1366.53" waitingTime="4.00" waitingCount="2" stopTime="0.00" timeLoss="33.06" rerouteNo="1" devices="tripinfo_veh92 routing_veh92 emissions_veh92 fcd_veh92" vType="veh_passenger" speedFactor="1.02" vaporized="">
        <emissions CO_abs="9710.920399" CO2_abs="555352.832939" HC_abs="57.354981" PMx_abs="11.375224" NOx_abs="231.015466" fuel_abs="177131.426135" electricity_abs="0"/>
    </tripinfo>
    <tripinfo id="veh11" depart="13.00" departLane="-445425468#1_0" departPos="5.10" departSpeed="0.00" departDelay="0.76" arrival="216.00" arrivalLane="472714557#2_0" arrivalPos="66.91" arrivalSpeed="7.96" duration="203.00" routeLength="3248.24" waitingTime="2.00" waitingCount="1" stopTime="0.00" timeLoss="67.24" rerouteNo="1" devices="tripinfo_veh11 routing_veh11 emissions_veh11 fcd_veh11" vType="veh_passenger" speedFactor="1.03" vaporized="">
        <emissions CO_abs="18982.735768" CO2_abs="1197502.142052" HC_abs="115.410057" PMx_abs="25.587776" NOx_abs="496.600643" fuel_abs="381945.101043" electricity_abs="0"/>
    </tripinfo>
    <tripinfo id="veh131" depart="146.00" departLane="887835675#1_0" departPos="2.77" departSpeed="0.00" departDelay="0.26" arrival="217.00" arrivalLane="-888160856#0_0" arrivalPos="154.94" arrivalSpeed="14.36" duration="71.00" routeLength="976.21" waitingTime="0.00" waitingCount="0" stopTime="0.00" timeLoss="22.08" rerouteNo="1" devices="tripinfo_veh131 routing_veh131 emissions_veh131 fcd_veh131" vType="veh_passenger" speedFactor="1.12" vaporized="">
        <emissions CO_abs="6539.363314" CO2_abs="400734.869164" HC_abs="39.339792" PMx_abs="8.288696" NOx_abs="167.937245" fuel_abs="127815.140083" electricity_abs="0"/>
    </tripinfo>