<?xml version="1.0" encoding="UTF-8"?>

<!-- generated on 2024-04-01 01:44:10 by Eclipse SUMO GUI Version 1.19.0
<configuration xmlns:xsi="http://www.w3.org/2001/XMLSchema-instance" xsi:noNamespaceSchemaLocation="http://sumo.dlr.de/xsd/sumoConfiguration.xsd">

    <input>
        <net-file value="osm.net.xml.gz"/>
        <route-files value="osm.passenger.trips.xml"/>
        <additional-files value="osm.poly.xml.gz"/>
    </input>

    <output>
        <netstate-dump value="my_dump_file.xml"/>
        <emission-output value="my_emission_file.xml"/>
        <fcd-output value="sumoTrace.xml"/>
        <tripinfo-output value="tripinfo.xml"/>
        <lanechange-output value="my_lane_change_file.xml"/>
    </output>

    <time>
        <begin value="0"/>
        <end value="500"/>
    </time>

    <report>
        <verbose value="true"/>
        <no-step-log value="true"/>
    </report>

    <traci_server>
        <remote-port value="64821"/>
    </traci_server>

</configuration>
-->

<tripinfos xmlns:xsi="http://www.w3.org/2001/XMLSchema-instance" xsi:noNamespaceSchemaLocation="http://sumo.dlr.de/xsd/tripinfo_file.xsd">
    <tripinfo id="veh2" depart="3.00" departLane="885409870#1_0" departPos="5.10" departSpeed="0.00" departDelay="0.77" arrival="59.00" arrivalLane="885380945#4_1" arrivalPos="123.81" arrivalSpeed="27.30" duration="56.00" routeLength="806.71" waitingTime="0.00" waitingCount="0" stopTime="0.00" timeLoss="22.53" rerouteNo="1" devices="tripinfo_veh2 routing_veh2 emissions_veh2 fcd_veh2" vType="veh_passenger" speedFactor="1.01" vaporized="">
        <emissions CO_abs="6392.999975" CO2_abs="388204.002565" HC_abs="38.580404" PMx_abs="8.427877" NOx_abs="165.492107" fuel_abs="123817.992840" electricity_abs="0"/>
    </tripinfo>
    <tripinfo id="veh10" depart="12.00" departLane="889162219#3_0" departPos="5.10" departSpeed="0.00" departDelay="0.87" arrival="75.00" arrivalLane="889119738#2_0" arrivalPos="20.12" arrivalSpeed="15.11" duration="63.00" routeLength="1027.37" waitingTime="0.00" waitingCount="0" stopTime="0.00" timeLoss="19.55" rerouteNo="1" devices="tripinfo_veh10 routing_veh10 emissions_veh10 fcd_veh10" vType="veh_passenger" speedFactor="1.09" vaporized="">
        <emissions CO_abs="6153.525821" CO2_abs="382786.874006" HC_abs="37.333378" PMx_abs="8.247750" NOx_abs="160.770527" fuel_abs="122090.317536" electricity_abs="0"/>
    </tripinfo>
    <tripinfo id="veh34" depart="38.00" departLane="888160860#2_0" departPos="5.10" departSpeed="0.00" departDelay="0.17" arrival="86.00" arrivalLane="-888160868#1_0" arrivalPos="45.15" arrivalSpeed="14.43" duration="48.00" routeLength="529.35" waitingTime="0.00" waitingCount="0" stopTime="0.00" timeLoss="20.74" rerouteNo="1" devices="tripinfo_veh34 routing_veh34 emissions_veh34 fcd_veh34" vType="veh_passenger" speedFactor="1.17" vaporized="">
        <emissions CO_abs="4510.035410" CO2_abs="265520.988787" HC_abs="26.916576" PMx_abs="5.461386" NOx_abs="113.506683" fuel_abs="84688.397575" electricity_abs="0"/>
    </tripinfo>
    <tripinfo id="veh6" depart="7.00" departLane="885380937#1_0" departPos="5.10" departSpeed="0.00" departDelay="0.32" arrival="97.00" arrivalLane="447791045#1_0" arrivalPos="412.75" arrivalSpeed="28.71" duration="90.00" routeLength="1867.68" waitingTime="0.00" waitingCount="0" stopTime="0.00" timeLoss="21.17" rerouteNo="1" devices="tripinfo_veh6 routing_veh6 emissions_veh6 fcd_veh6" vType="veh_passenger" speedFactor="1.05" vaporized="">
        <emissions CO_abs="10116.679508" CO2_abs="652107.813134" HC_abs="62.164053" PMx_abs="14.452153" NOx_abs="268.518102" fuel_abs="207990.475567" electricity_abs="0"/>
    </tripinfo>
    <tripinfo id="veh0" depart="0.00" departLane="885380933_0" departPos="5.10" departSpeed="29.45" departDelay="0.00" arrival="105.00" arrivalLane="-1202728905#0_0" arrivalPos="13.66" arrivalSpeed="9.33" duration="105.00" routeLength="1864.44" waitingTime="4.00" waitingCount="1" stopTime="0.00" timeLoss="28.70" rerouteNo="1" devices="tripinfo_veh0 routing_veh0 emissions_veh0 fcd_veh0" vType="veh_passenger" speedFactor="1.06" vaporized="">
        <emissions CO_abs="8726.404592" CO2_abs="527787.719818" HC_abs="52.658516" PMx_abs="11.298522" NOx_abs="214.157981" fuel_abs="168339.286213" electricity_abs="0"/>
    </tripinfo>
    <tripinfo id="veh32" depart="36.00" departLane="-888160868#2_0" departPos="5.10" departSpeed="0.00" departDelay="0.40" arrival="105.00" arrivalLane="888155717#3_0" arrivalPos="67.80" arrivalSpeed="15.57" duration="69.00" routeLength="1111.54" waitingTime="0.00" waitingCount="0" stopTime="0.00" timeLoss="23.32" rerouteNo="1" devices="tripinfo_veh32 routing_veh32 emissions_veh32 fcd_veh32" vType="veh_passenger" speedFactor="1.15" vaporized="">
        <emissions CO_abs="8543.002371" CO2_abs="482374.262841" HC_abs="50.702974" PMx_abs="10.870729" NOx_abs="206.227313" fuel_abs="153853.749988" electricity_abs="0"/>
    </tripinfo>
    <tripinfo id="veh40" depart="45.00" departLane="-889504806#1_0" departPos="5.10" departSpeed="0.00" departDelay="0.50" arrival="106.00" arrivalLane="-887771596#0_0" arrivalPos="29.83" arrivalSpeed="11.25" duration="61.00" routeLength="819.41" waitingTime="0.00" waitingCount="0" stopTime="0.00" timeLoss="15.98" rerouteNo="1" devices="tripinfo_veh40 routing_veh40 emissions_veh40 fcd_veh40" vType="veh_passenger" speedFactor="0.90" vaporized="">
        <emissions CO_abs="3972.542232" CO2_abs="266176.140660" HC_abs="24.396052" PMx_abs="5.172556" NOx_abs="108.917232" fuel_abs="84897.564826" electricity_abs="0"/>
    </tripinfo>
    <tripinfo id="veh26" depart="29.00" departLane="-885389918#0_0" departPos="5.10" departSpeed="0.00" departDelay="0.07" arrival="109.00" arrivalLane="-885395971#0_0" arrivalPos="172.00" arrivalSpeed="12.04" duration="80.00" routeLength="941.26" waitingTime="0.00" waitingCount="0" stopTime="0.00" timeLoss="20.73" rerouteNo="1" devices="tripinfo_veh26 routing_veh26 emissions_veh26 fcd_veh26" vType="veh_passenger" speedFactor="0.87" vaporized="">
        <emissions CO_abs="4901.012726" CO2_abs="312829.329283" HC_abs="29.517830" PMx_abs="5.864730" NOx_abs="127.034849" fuel_abs="99778.027663" electricity_abs="0"/>
    </tripinfo>
    <tripinfo id="veh38" depart="43.00" departLane="472714560#4_0" departPos="5.10" departSpeed="0.00" departDelay="0.72" arrival="112.00" arrivalLane="-888155716#0_0" arrivalPos="0.20" arrivalSpeed="15.85" duration="69.00" routeLength="732.60" waitingTime="5.00" waitingCount="1" stopTime="0.00" timeLoss="23.07" rerouteNo="1" devices="tripinfo_veh38 routing_veh38 emissions_veh38 fcd_veh38" vType="veh_passenger" speedFactor="1.18" vaporized="">
        <emissions CO_abs="4799.265535" CO2_abs="276545.470621" HC_abs="28.134181" PMx_abs="5.101159" NOx_abs="113.163059" fuel_abs="88205.435098" electricity_abs="0"/>
    </tripinfo>
    <tripinfo id="veh4" depart="5.00" departLane="-887771595#0_0" departPos="5.10" departSpeed="0.00" departDelay="0.55" arrival="121.00" arrivalLane="-444358759#6_0" arrivalPos="20.53" arrivalSpeed="14.16" duration="116.00" routeLength="1679.21" waitingTime="4.00" waitingCount="1" stopTime="0.00" timeLoss="37.72" rerouteNo="1" devices="tripinfo_veh4 routing_veh4 emissions_veh4 fcd_veh4" vType="veh_passenger" speedFactor="1.03" vaporized="">
        <emissions CO_abs="10780.801040" CO2_abs="650964.902467" HC_abs="64.735428" PMx_abs="13.682609" NOx_abs="272.106753" fuel_abs="207626.511548" electricity_abs="0"/>
    </tripinfo>
    <tripinfo id="veh21" depart="24.00" departLane="472714560#1_0" departPos="5.10" departSpeed="0.00" departDelay="0.64" arrival="127.00" arrivalLane="-888155729#3_0" arrivalPos="8.19" arrivalSpeed="13.43" duration="103.00" routeLength="1560.59" waitingTime="0.00" waitingCount="0" stopTime="0.00" timeLoss="18.81" rerouteNo="1" devices="tripinfo_veh21 routing_veh21 emissions_veh21 fcd_veh21" vType="veh_passenger" speedFactor="1.01" vaporized="">
        <emissions CO_abs="6216.522774" CO2_abs="449600.405580" HC_abs="38.875161" PMx_abs="8.554625" NOx_abs="179.750553" fuel_abs="143401.314300" electricity_abs="0"/>
    </tripinfo>
    <tripinfo id="veh14" depart="16.00" departLane="-445291914#1_1" departPos="5.10" departSpeed="0.00" departDelay="0.42" arrival="134.00" arrivalLane="891208434#6_1" arrivalPos="15.12" arrivalSpeed="27.34" duration="118.00" routeLength="1628.73" waitingTime="0.00" waitingCount="0" stopTime="0.00" timeLoss="16.42" rerouteNo="1" devices="tripinfo_veh14 routing_veh14 emissions_veh14 fcd_veh14" vType="veh_passenger" speedFactor="0.99" vaporized="">
        <emissions CO_abs="7987.334638" CO2_abs="496186.932147" HC_abs="48.320100" PMx_abs="9.846028" NOx_abs="200.245781" fuel_abs="158260.573035" electricity_abs="0"/>
    </tripinfo>
    <tripinfo id="veh69" depart="77.00" departLane="-888155716#3_0" departPos="0.20" departSpeed="0.00" departDelay="0.24" arrival="139.00" arrivalLane="444357950#11_1" arrivalPos="0.20" arrivalSpeed="25.35" duration="62.00" routeLength="920.62" waitingTime="0.00" waitingCount="0" stopTime="0.00" timeLoss="11.34" rerouteNo="1" devices="tripinfo_veh69 routing_veh69 emissions_veh69 fcd_veh69" vType="veh_passenger" speedFactor="0.91" vaporized="">
        <emissions CO_abs="4356.263042" CO2_abs="298238.107337" HC_abs="26.694690" PMx_abs="5.799715" NOx_abs="119.653781" fuel_abs="95123.859172" electricity_abs="0"/>
    </tripinfo>
    <tripinfo id="veh65" depart="73.00" departLane="-444802957#3_0" departPos="5.10" departSpeed="0.00" departDelay="0.69" arrival="140.00" arrivalLane="301007105_0" arrivalPos="92.34" arrivalSpeed="13.37" duration="67.00" routeLength="389.85" waitingTime="17.00" waitingCount="1" stopTime="0.00" timeLoss="26.17" rerouteNo="1" devices="tripinfo_veh65 routing_veh65 emissions_veh65 fcd_veh65" vType="veh_passenger" speedFactor="0.99" vaporized="">
        <emissions CO_abs="5680.365528" CO2_abs="185506.851738" HC_abs="30.174454" PMx_abs="3.554177" NOx_abs="77.977715" fuel_abs="59169.616447" electricity_abs="0"/>
    </tripinfo>
    <tripinfo id="veh79" depart="88.00" departLane="888157361#0_0" departPos="5.10" departSpeed="0.00" departDelay="0.11" arrival="145.00" arrivalLane="-444357950#7_0" arrivalPos="55.71" arrivalSpeed="28.66" duration="57.00" routeLength="717.25" waitingTime="0.00" waitingCount="0" stopTime="0.00" timeLoss="19.56" rerouteNo="1" devices="tripinfo_veh79 routing_veh79 emissions_veh79 fcd_veh79" vType="veh_passenger" speedFactor="1.03" vaporized="">
        <emissions CO_abs="5491.900990" CO2_abs="330847.692245" HC_abs="33.029805" PMx_abs="6.866386" NOx_abs="138.066405" fuel_abs="105524.607616" electricity_abs="0"/>
    </tripinfo>
    <tripinfo id="veh13" depart="15.00" departLane="887815454#2_0" departPos="5.10" departSpeed="0.00" departDelay="0.54" arrival="153.00" arrivalLane="885395971#1_0" arrivalPos="36.73" arrivalSpeed="15.01" duration="138.00" routeLength="2596.21" waitingTime="0.00" waitingCount="0" stopTime="0.00" timeLoss="38.72" rerouteNo="1" devices="tripinfo_veh13 routing_veh13 emissions_veh13 fcd_veh13" vType="veh_passenger" speedFactor="1.12" vaporized="">
        <emissions CO_abs="15253.839059" CO2_abs="926654.683074" HC_abs="92.316470" PMx_abs="20.613423" NOx_abs="384.612896" fuel_abs="295557.766794" electricity_abs="0"/>
    </tripinfo>
    <tripinfo id="veh59" depart="66.00" departLane="-887771598#2_0" departPos="5.10" departSpeed="0.00" departDelay="0.36" arrival="153.00" arrivalLane="447791038#0_0" arrivalPos="166.36" arrivalSpeed="24.11" duration="87.00" routeLength="821.57" waitingTime="28.00" waitingCount="1" stopTime="0.00" timeLoss="47.23" rerouteNo="1" devices="tripinfo_veh59 routing_veh59 emissions_veh59 fcd_veh59" vType="veh_passenger" speedFactor="1.14" vaporized="">
        <emissions CO_abs="10092.231041" CO2_abs="414260.183349" HC_abs="55.738870" PMx_abs="8.860977" NOx_abs="175.510274" fuel_abs="132130.816038" electricity_abs="0"/>
    </tripinfo>
    <tripinfo id="veh31" depart="35.00" departLane="-887775249#1_0" departPos="5.10" departSpeed="0.00" departDelay="0.51" arrival="155.00" arrivalLane="-301007089#0_0" arrivalPos="99.94" arrivalSpeed="16.01" duration="120.00" routeLength="850.52" waitingTime="41.00" waitingCount="1" stopTime="0.00" timeLoss="65.82" rerouteNo="1" devices="tripinfo_veh31 routing_veh31 emissions_veh31 fcd_veh31" vType="veh_passenger" speedFactor="1.18" vaporized="">
        <emissions CO_abs="11948.372467" CO2_abs="434356.504122" HC_abs="64.502874" PMx_abs="8.818514" NOx_abs="184.443302" fuel_abs="138541.806439" electricity_abs="0"/>
    </tripinfo>
    <tripinfo id="veh18" depart="21.00" departLane="885384073#5_1" departPos="5.10" departSpeed="0.00" departDelay="0.97" arrival="156.00" arrivalLane="-301007097#3_0" arrivalPos="53.23" arrivalSpeed="12.62" duration="135.00" routeLength="1919.95" waitingTime="0.00" waitingCount="0" stopTime="0.00" timeLoss="32.52" rerouteNo="1" devices="tripinfo_veh18 routing_veh18 emissions_veh18 fcd_veh18" vType="veh_passenger" speedFactor="0.94" vaporized="">
        <emissions CO_abs="9247.301301" CO2_abs="606427.055439" HC_abs="56.475821" PMx_abs="12.033125" NOx_abs="246.023996" fuel_abs="193421.558422" electricity_abs="0"/>
    </tripinfo>
    <tripinfo id="veh35" depart="39.00" departLane="885380939#0_0" departPos="5.10" departSpeed="0.00" departDelay="0.06" arrival="161.00" arrivalLane="889441218#0_1" arrivalPos="46.38" arrivalSpeed="14.97" duration="122.00" routeLength="2029.81" waitingTime="0.00" waitingCount="0" stopTime="0.00" timeLoss="30.83" rerouteNo="1" devices="tripinfo_veh35 routing_veh35 emissions_veh35 fcd_veh35" vType="veh_passenger" speedFactor="0.99" vaporized="">
        <emissions CO_abs="9250.987306" CO2_abs="638224.295545" HC_abs="57.442448" PMx_abs="13.109748" NOx_abs="259.283174" fuel_abs="203562.792194" electricity_abs="0"/>
    </tripinfo>
    <tripinfo id="veh62" depart="69.00" departLane="888160862_0" departPos="5.10" departSpeed="0.00" departDelay="0.02" arrival="167.00" arrivalLane="888155727#0_0" arrivalPos="55.73" arrivalSpeed="14.07" duration="98.00" routeLength="987.71" waitingTime="11.00" waitingCount="2" stopTime="0.00" timeLoss="39.14" rerouteNo="1" devices="tripinfo_veh62 routing_veh62 emissions_veh62 fcd_veh62" vType="veh_passenger" speedFactor="1.08" vaporized="">
        <emissions CO_abs="8342.746018" CO2_abs="422719.441594" HC_abs="47.886102" PMx_abs="8.540156" NOx_abs="178.984630" fuel_abs="134828.054383" electricity_abs="0"/>
    </tripinfo>
    <tripinfo id="veh49" depart="55.00" departLane="885380945#4_1" departPos="5.10" departSpeed="0.00" departDelay="0.49" arrival="169.00" arrivalLane="447791042_0" arrivalPos="36.25" arrivalSpeed="24.04" duration="114.00" routeLength="2149.71" waitingTime="0.00" waitingCount="0" stopTime="0.00" timeLoss="21.92" rerouteNo="1" devices="tripinfo_veh49 routing_veh49 emissions_veh49 fcd_veh49" vType="veh_passenger" speedFactor="0.88" vaporized="">
        <emissions CO_abs="7596.118733" CO2_abs="598596.032456" HC_abs="48.675835" PMx_abs="11.824950" NOx_abs="235.544815" fuel_abs="190923.372676" electricity_abs="0"/>
    </tripinfo>
    <tripinfo id="veh117" depart="131.00" departLane="444361593#2_0" departPos="5.10" departSpeed="0.00" departDelay="0.84" arrival="170.00" arrivalLane="889138277#2_0" arrivalPos="22.25" arrivalSpeed="28.37" duration="39.00" routeLength="596.76" waitingTime="0.00" waitingCount="0" stopTime="0.00" timeLoss="15.16" rerouteNo="1" devices="tripinfo_veh117 routing_veh117 emissions_veh117 fcd_veh117" vType="veh_passenger" speedFactor="1.10" vaporized="">
        <emissions CO_abs="5258.067235" CO2_abs="318411.858978" HC_abs="31.734274" PMx_abs="7.022303" NOx_abs="136.209865" fuel_abs="101557.633282" electricity_abs="0"/>
    </tripinfo>
    <tripinfo id="veh61" depart="68.00" departLane="-119045603#0_0" departPos="5.10" departSpeed="0.00" departDelay="0.14" arrival="171.00" arrivalLane="-889135582#1_0" arrivalPos="62.72" arrivalSpeed="12.24" duration="103.00" routeLength="1906.13" waitingTime="0.00" waitingCount="0" stopTime="0.00" timeLoss="24.59" rerouteNo="1" devices="tripinfo_veh61 routing_veh61 emissions_veh61 fcd_veh61" vType="veh_passenger" speedFactor="0.97" vaporized="">
        <emissions CO_abs="8953.775924" CO2_abs="614400.080456" HC_abs="55.602079" PMx_abs="12.940181" NOx_abs="250.510510" fuel_abs="195963.740769" electricity_abs="0"/>
    </tripinfo>
    <tripinfo id="veh53" depart="59.00" departLane="888160860#1_0" departPos="5.10" departSpeed="0.00" departDelay="0.04" arrival="178.00" arrivalLane="888155716#1_0" arrivalPos="0.20" arrivalSpeed="10.25" duration="119.00" routeLength="1351.62" waitingTime="24.00" waitingCount="1" stopTime="0.00" timeLoss="47.10" rerouteNo="1" devices="tripinfo_veh53 routing_veh53 emissions_veh53 fcd_veh53" vType="veh_passenger" speedFactor="1.02" vaporized="">
        <emissions CO_abs="11070.988288" CO2_abs="523095.614134" HC_abs="62.765838" PMx_abs="10.824790" NOx_abs="219.206727" fuel_abs="166843.942691" electricity_abs="0"/>
    </tripinfo>
    <tripinfo id="veh29" depart="33.00" departLane="-472714557#5_0" departPos="5.10" departSpeed="0.00" departDelay="0.74" arrival="180.00" arrivalLane="885380946#2_0" arrivalPos="81.88" arrivalSpeed="30.41" duration="147.00" routeLength="1669.53" waitingTime="30.00" waitingCount="1" stopTime="0.00" timeLoss="56.64" rerouteNo="1" devices="tripinfo_veh29 routing_veh29 emissions_veh29 fcd_veh29" vType="veh_passenger" speedFactor="1.13" vaporized="">
        <emissions CO_abs="15496.375880" CO2_abs="696360.612006" HC_abs="87.486560" PMx_abs="14.973722" NOx_abs="290.115450" fuel_abs="222107.973164" electricity_abs="0"/>
    </tripinfo>
    <tripinfo id="veh39" depart="44.00" departLane="472717507#1_0" departPos="5.10" departSpeed="0.00" departDelay="0.61" arrival="181.00" arrivalLane="889119739#2_0" arrivalPos="68.79" arrivalSpeed="14.66" duration="137.00" routeLength="2262.05" waitingTime="0.00" waitingCount="0" stopTime="0.00" timeLoss="35.82" rerouteNo="1" devices="tripinfo_veh39 routing_veh39 emissions_veh39 fcd_veh39" vType="veh_passenger" speedFactor="1.10" vaporized="">
        <emissions CO_abs="13860.678501" CO2_abs="850319.839412" HC_abs="83.889878" PMx_abs="18.371754" NOx_abs="354.592842" fuel_abs="271210.788889" electricity_abs="0"/>
    </tripinfo>
    <tripinfo id="veh99" depart="116.00" departLane="-889504806#4_0" departPos="5.10" departSpeed="0.00" departDelay="5.86" arrival="181.00" arrivalLane="-326546173#1_0" arrivalPos="166.59" arrivalSpeed="8.32" duration="65.00" routeLength="840.02" waitingTime="0.00" waitingCount="0" stopTime="0.00" timeLoss="17.24" rerouteNo="1" devices="tripinfo_veh99 routing_veh99 emissions_veh99 fcd_veh99" vType="veh_passenger" speedFactor="1.01" vaporized="">
        <emissions CO_abs="5073.126967" CO2_abs="307898.690293" HC_abs="30.497791" PMx_abs="6.155770" NOx_abs="126.932329" fuel_abs="98205.213811" electricity_abs="0"/>
    </tripinfo>
    <tripinfo id="veh43" depart="48.00" departLane="-472714577#0_0" departPos="5.10" departSpeed="0.00" departDelay="0.16" arrival="183.00" arrivalLane="885354458_0" arrivalPos="111.75" arrivalSpeed="13.92" duration="135.00" routeLength="1289.68" waitingTime="20.00" waitingCount="1" stopTime="0.00" timeLoss="46.68" rerouteNo="1" devices="tripinfo_veh43 routing_veh43 emissions_veh43 fcd_veh43" vType="veh_passenger" speedFactor="1.09" vaporized="">
        <emissions CO_abs="11014.585368" CO2_abs="508992.908420" HC_abs="62.168570" PMx_abs="10.227536" NOx_abs="213.138975" fuel_abs="162346.177569" electricity_abs="0"/>
    </tripinfo>
    <tripinfo id="veh76" depart="85.00" departLane="887776076#0_0" departPos="5.10" departSpeed="0.00" departDelay="0.45" arrival="184.00" arrivalLane="-887771596#1_0" arrivalPos="40.59" arrivalSpeed="12.61" duration="99.00" routeLength="1225.76" waitingTime="0.00" waitingCount="0" stopTime="0.00" timeLoss="29.98" rerouteNo="1" devices="tripinfo_veh76 routing_veh76 emissions_veh76 fcd_veh76" vType="veh_passenger" speedFactor="0.96" vaporized="">
        <emissions CO_abs="7572.377098" CO2_abs="465434.220198" HC_abs="45.645046" PMx_abs="9.360407" NOx_abs="194.201816" fuel_abs="148451.358844" electricity_abs="0"/>
    </tripinfo>
    <tripinfo id="veh90" depart="101.00" departLane="885409871#5_0" departPos="5.10" departSpeed="0.00" departDelay="0.87" arrival="189.00" arrivalLane="119045605#3_1" arrivalPos="314.97" arrivalSpeed="28.18" duration="88.00" routeLength="1506.92" waitingTime="0.00" waitingCount="0" stopTime="0.00" timeLoss="30.49" rerouteNo="1" devices="tripinfo_veh90 routing_veh90 emissions_veh90 fcd_veh90" vType="veh_passenger" speedFactor="1.04" vaporized="">
        <emissions CO_abs="10800.788290" CO2_abs="651437.208940" HC_abs="65.150949" PMx_abs="14.384518" NOx_abs="273.487020" fuel_abs="207776.656848" electricity_abs="0"/>
    </tripinfo>
    <tripinfo id="veh9" depart="11.00" departLane="889119742_0" departPos="5.10" departSpeed="0.00" departDelay="0.99" arrival="192.00" arrivalLane="885380942#4_0" arrivalPos="103.25" arrivalSpeed="18.93" duration="181.00" routeLength="1497.46" waitingTime="55.00" waitingCount="2" stopTime="0.00" timeLoss="88.73" rerouteNo="1" devices="tripinfo_veh9 routing_veh9 emissions_veh9 fcd_veh9" vType="veh_passenger" speedFactor="0.86" vaporized="">
        <emissions CO_abs="17261.727616" CO2_abs="674130.323248" HC_abs="94.357727" PMx_abs="13.689951" NOx_abs="284.183457" fuel_abs="215019.128645" electricity_abs="0"/>
    </tripinfo>
    <tripinfo id="veh85" depart="95.00" departLane="-1083485614#1_0" departPos="5.10" departSpeed="0.00" departDelay="0.44" arrival="193.00" arrivalLane="301007093#4_0" arrivalPos="6.20" arrivalSpeed="5.50" duration="98.00" routeLength="1237.02" waitingTime="0.00" waitingCount="0" stopTime="0.00" timeLoss="24.70" rerouteNo="1" devices="tripinfo_veh85 routing_veh85 emissions_veh85 fcd_veh85" vType="veh_passenger" speedFactor="1.02" vaporized="">
        <emissions CO_abs="6673.097144" CO2_abs="418822.650692" HC_abs="40.208833" PMx_abs="8.040839" NOx_abs="171.008793" fuel_abs="133584.907458" electricity_abs="0"/>
    </tripinfo>
    <tripinfo id="veh66" depart="74.00" departLane="444357950#6_0" departPos="5.10" departSpeed="0.00" departDelay="0.57" arrival="195.00" arrivalLane="885773074_0" arrivalPos="52.00" arrivalSpeed="12.04" duration="121.00" routeLength="1807.55" waitingTime="0.00" waitingCount="0" stopTime="0.00" timeLoss="36.05" rerouteNo="1" devices="tripinfo_veh66 routing_veh66 emissions_veh66 fcd_veh66" vType="veh_passenger" speedFactor="0.94" vaporized="">
        <emissions CO_abs="8479.532881" CO2_abs="592819.858365" HC_abs="52.543647" PMx_abs="11.687507" NOx_abs="240.984603" fuel_abs="189081.133638" electricity_abs="0"/>
    </tripinfo>
    <tripinfo id="veh111" depart="124.00" departLane="444509134#1_0" departPos="3.11" departSpeed="0.00" departDelay="0.51" arrival="195.00" arrivalLane="-885395971#1_0" arrivalPos="37.69" arrivalSpeed="13.91" duration="71.00" routeLength="1084.82" waitingTime="0.00" waitingCount="0" stopTime="0.00" timeLoss="29.79" rerouteNo="1" devices="tripinfo_veh111 routing_veh111 emissions_veh111 fcd_veh111" vType="veh_passenger" speedFactor="1.06" vaporized="">
        <emissions CO_abs="7288.597729" CO2_abs="448999.920120" HC_abs="44.101218" PMx_abs="9.704223" NOx_abs="189.864930" fuel_abs="143208.971687" electricity_abs="0"/>
    </tripinfo>
    <tripinfo id="veh83" depart="93.00" departLane="301007090#1_0" departPos="5.10" departSpeed="0.00" departDelay="0.66" arrival="196.00" arrivalLane="887777135#2_0" arrivalPos="32.15" arrivalSpeed="13.16" duration="103.00" routeLength="801.71" waitingTime="8.00" waitingCount="1" stopTime="0.00" timeLoss="31.43" rerouteNo="1" devices="tripinfo_veh83 routing_veh83 emissions_veh83 fcd_veh83" vType="veh_passenger" speedFactor="1.03" vaporized="">
        <emissions CO_abs="7586.022451" CO2_abs="352382.765958" HC_abs="42.765950" PMx_abs="6.642314" NOx_abs="147.747873" fuel_abs="112394.732850" electricity_abs="0"/>
    </tripinfo>
    <tripinfo id="veh54" depart="61.00" departLane="444357950#0_0" departPos="5.10" departSpeed="0.00" departDelay="0.92" arrival="199.00" arrivalLane="-885389925_0" arrivalPos="50.54" arrivalSpeed="14.38" duration="138.00" routeLength="2524.33" waitingTime="0.00" waitingCount="0" stopTime="0.00" timeLoss="42.14" rerouteNo="1" devices="tripinfo_veh54 routing_veh54 emissions_veh54 fcd_veh54" vType="veh_passenger" speedFactor="1.10" vaporized="">
        <emissions CO_abs="13565.330987" CO2_abs="862970.407932" HC_abs="82.953630" PMx_abs="18.847968" NOx_abs="357.370693" fuel_abs="275245.451398" electricity_abs="0"/>
    </tripinfo>
    <tripinfo id="veh78" depart="87.00" departLane="-887775249#0_0" departPos="5.10" departSpeed="0.00" departDelay="0.22" arrival="202.00" arrivalLane="889119747#3_0" arrivalPos="59.47" arrivalSpeed="13.59" duration="115.00" routeLength="1932.51" waitingTime="0.00" waitingCount="0" stopTime="0.00" timeLoss="28.03" rerouteNo="1" devices="tripinfo_veh78 routing_veh78 emissions_veh78 fcd_veh78" vType="veh_passenger" speedFactor="0.98" vaporized="">
        <emissions CO_abs="9177.558572" CO2_abs="617148.285467" HC_abs="56.502815" PMx_abs="12.776867" NOx_abs="251.962609" fuel_abs="196840.511752" electricity_abs="0"/>
    </tripinfo>
    <tripinfo id="veh28" depart="32.00" departLane="891820957#0_0" departPos="5.10" departSpeed="0.00" departDelay="0.85" arrival="206.00" arrivalLane="885380937#2_1" arrivalPos="203.01" arrivalSpeed="26.01" duration="174.00" routeLength="2070.47" waitingTime="0.00" waitingCount="0" stopTime="0.00" timeLoss="26.87" rerouteNo="1" devices="tripinfo_veh28 routing_veh28 emissions_veh28 fcd_veh28" vType="veh_passenger" speedFactor="0.95" vaporized="">
        <emissions CO_abs="10489.253776" CO2_abs="623049.075098" HC_abs="62.486846" PMx_abs="11.691232" NOx_abs="250.557365" fuel_abs="198724.456515" electricity_abs="0"/>
    </tripinfo>
    <tripinfo id="veh121" depart="135.00" departLane="888160868#3_0" departPos="5.10" departSpeed="0.00" departDelay="0.39" arrival="206.00" arrivalLane="1044734319_0" arrivalPos="66.44" arrivalSpeed="13.48" duration="71.00" routeLength="1110.62" waitingTime="0.00" waitingCount="0" stopTime="0.00" timeLoss="15.34" rerouteNo="1" devices="tripinfo_veh121 routing_veh121 emissions_veh121 fcd_veh121" vType="veh_passenger" speedFactor="0.99" vaporized="">
        <emissions CO_abs="5058.915615" CO2_abs="340136.284756" HC_abs="30.997217" PMx_abs="6.721800" NOx_abs="136.096807" fuel_abs="108487.460127" electricity_abs="0"/>
    </tripinfo>
    <tripinfo id="veh81" depart="91.00" departLane="-885768951_0" departPos="5.10" departSpeed="0.00" departDelay="0.89" arrival="207.00" arrivalLane="-840315695#1_0" arrivalPos="100.28" arrivalSpeed="12.95" duration="116.00" routeLength="1687.50" waitingTime="2.00" waitingCount="1" stopTime="0.00" timeLoss="39.65" rerouteNo="1" devices="tripinfo_veh81 routing_veh81 emissions_veh81 fcd_veh81" vType="veh_passenger" speedFactor="1.01" vaporized="">
        <emissions CO_abs="11591.941166" CO2_abs="691407.143955" HC_abs="69.566917" PMx_abs="14.731637" NOx_abs="291.384833" fuel_abs="220525.449153" electricity_abs="0"/>
    </tripinfo>
    <tripinfo id="veh115" depart="128.00" departLane="504167484#7_0" departPos="5.10" departSpeed="0.00" departDelay="0.06" arrival="207.00" arrivalLane="885354450_0" arrivalPos="95.58" arrivalSpeed="14.77" duration="79.00" routeLength="795.35" waitingTime="9.00" waitingCount="1" stopTime="0.00" timeLoss="30.45" rerouteNo="1" devices="tripinfo_veh115 routing_veh115 emissions_veh115 fcd_veh115" vType="veh_passenger" speedFactor="1.10" vaporized="">
        <emissions CO_abs="6092.783787" CO2_abs="309735.536346" HC_abs="34.848234" PMx_abs="5.979091" NOx_abs="128.896057" fuel_abs="98791.700191" electricity_abs="0"/>
    </tripinfo>
    <tripinfo id="veh129" depart="147.00" departLane="720356475#4_1" departPos="5.10" departSpeed="0.00" departDelay="3.49" arrival="208.00" arrivalLane="891826630_0" arrivalPos="13.68" arrivalSpeed="14.51" duration="61.00" routeLength="945.80" waitingTime="0.00" waitingCount="0" stopTime="0.00" timeLoss="22.63" rerouteNo="1" devices="tripinfo_veh129 routing_veh129 emissions_veh129 fcd_veh129" vType="veh_passenger" speedFactor="1.03" vaporized="">
        <emissions CO_abs="6320.091758" CO2_abs="398045.134563" HC_abs="38.456607" PMx_abs="8.559887" NOx_abs="167.573245" fuel_abs="126956.889575" electricity_abs="0"/>
    </tripinfo>
    <tripinfo id="veh92" depart="103.00" departLane="-887817819_0" departPos="5.10" departSpeed="0.00" departDelay="0.65" arrival="211.00" arrivalLane="889135578#1_0" arrivalPos="303.03" arrivalSpeed="27.11" duration="108.00" routeLength="1366.53" waitingTime="0.00" waitingCount="0" stopTime="0.00" timeLoss="29.46" rerouteNo="1" devices="tripinfo_veh92 routing_veh92 emissions_veh92 fcd_veh92" vType="veh_passenger" speedFactor="1.02" vaporized="">
        <emissions CO_abs="9096.473994" CO2_abs="543171.414551" HC_abs="54.462233" PMx_abs="11.093371" NOx_abs="226.726437" fuel_abs="173245.881374" electricity_abs="0"/>
    </tripinfo>
    <tripinfo id="veh97" depart="108.00" departLane="888155730#0_0" departPos="5.10" departSpeed="0.00" departDelay="0.09" arrival="211.00" arrivalLane="885389915#1_0" arrivalPos="39.68" arrivalSpeed="13.67" duration="103.00" routeLength="968.38" waitingTime="7.00" waitingCount="1" stopTime="0.00" timeLoss="41.52" rerouteNo="1" devices="tripinfo_veh97 routing_veh97 emissions_veh97 fcd_veh97" vType="veh_passenger" speedFactor="1.09" vaporized="">
        <emissions CO_abs="8499.914196" CO2_abs="437366.685049" HC_abs="48.974502" PMx_abs="8.732976" NOx_abs="185.444698" fuel_abs="139499.808878" electricity_abs="0"/>
    </tripinfo>