<?xml version="1.0" encoding="UTF-8"?>

<!-- generated on 2024-04-01 01:48:07 by Eclipse SUMO GUI Version 1.19.0
<configuration xmlns:xsi="http://www.w3.org/2001/XMLSchema-instance" xsi:noNamespaceSchemaLocation="http://sumo.dlr.de/xsd/sumoConfiguration.xsd">

    <input>
        <net-file value="osm.net.xml.gz"/>
        <route-files value="osm.passenger.trips.xml"/>
        <additional-files value="osm.poly.xml.gz"/>
    </input>

    <output>
        <netstate-dump value="my_dump_file.xml"/>
        <emission-output value="my_emission_file.xml"/>
        <fcd-output value="sumoTrace.xml"/>
        <tripinfo-output value="tripinfo.xml"/>
        <lanechange-output value="my_lane_change_file.xml"/>
    </output>

    <time>
        <begin value="0"/>
        <end value="500"/>
    </time>

    <report>
        <verbose value="true"/>
        <no-step-log value="true"/>
    </report>

    <traci_server>
        <remote-port value="64848"/>
    </traci_server>

</configuration>
-->

<tripinfos xmlns:xsi="http://www.w3.org/2001/XMLSchema-instance" xsi:noNamespaceSchemaLocation="http://sumo.dlr.de/xsd/tripinfo_file.xsd">
    <tripinfo id="veh2" depart="3.00" departLane="885409870#1_0" departPos="5.10" departSpeed="0.00" departDelay="0.77" arrival="59.00" arrivalLane="885380945#4_1" arrivalPos="123.81" arrivalSpeed="27.30" duration="56.00" routeLength="806.71" waitingTime="0.00" waitingCount="0" stopTime="0.00" timeLoss="22.59" rerouteNo="1" devices="tripinfo_veh2 routing_veh2 emissions_veh2 fcd_veh2" vType="veh_passenger" speedFactor="1.01" vaporized="">
        <emissions CO_abs="6373.183215" CO2_abs="387560.407766" HC_abs="38.472357" PMx_abs="8.406246" NOx_abs="165.228873" fuel_abs="123612.715881" electricity_abs="0"/>
    </tripinfo>
    <tripinfo id="veh10" depart="12.00" departLane="889162219#3_0" departPos="5.10" departSpeed="0.00" departDelay="0.87" arrival="76.00" arrivalLane="889119738#2_0" arrivalPos="20.12" arrivalSpeed="15.11" duration="64.00" routeLength="1027.37" waitingTime="0.00" waitingCount="0" stopTime="0.00" timeLoss="19.64" rerouteNo="1" devices="tripinfo_veh10 routing_veh10 emissions_veh10 fcd_veh10" vType="veh_passenger" speedFactor="1.09" vaporized="">
        <emissions CO_abs="6124.413949" CO2_abs="382359.797265" HC_abs="37.212529" PMx_abs="8.268823" NOx_abs="160.776246" fuel_abs="121954.057161" electricity_abs="0"/>
    </tripinfo>
    <tripinfo id="veh34" depart="38.00" departLane="888160860#2_0" departPos="5.10" departSpeed="0.00" departDelay="0.17" arrival="86.00" arrivalLane="-888160868#1_0" arrivalPos="45.15" arrivalSpeed="14.42" duration="48.00" routeLength="529.35" waitingTime="0.00" waitingCount="0" stopTime="0.00" timeLoss="20.58" rerouteNo="1" devices="tripinfo_veh34 routing_veh34 emissions_veh34 fcd_veh34" vType="veh_passenger" speedFactor="1.17" vaporized="">
        <emissions CO_abs="4464.603988" CO2_abs="262330.294462" HC_abs="26.595050" PMx_abs="5.382533" NOx_abs="112.073417" fuel_abs="83670.734858" electricity_abs="0"/>
    </tripinfo>
    <tripinfo id="veh6" depart="7.00" departLane="885380937#1_0" departPos="5.10" departSpeed="0.00" departDelay="0.32" arrival="97.00" arrivalLane="447791045#1_0" arrivalPos="412.75" arrivalSpeed="27.95" duration="90.00" routeLength="1867.68" waitingTime="0.00" waitingCount="0" stopTime="0.00" timeLoss="21.18" rerouteNo="1" devices="tripinfo_veh6 routing_veh6 emissions_veh6 fcd_veh6" vType="veh_passenger" speedFactor="1.05" vaporized="">
        <emissions CO_abs="9945.250962" CO2_abs="643340.864824" HC_abs="61.212340" PMx_abs="14.219459" NOx_abs="264.629160" fuel_abs="205194.280673" electricity_abs="0"/>
    </tripinfo>
    <tripinfo id="veh0" depart="0.00" departLane="885380933_0" departPos="5.10" departSpeed="29.45" departDelay="0.00" arrival="105.00" arrivalLane="-1202728905#0_0" arrivalPos="13.66" arrivalSpeed="9.51" duration="105.00" routeLength="1864.44" waitingTime="3.00" waitingCount="1" stopTime="0.00" timeLoss="28.35" rerouteNo="1" devices="tripinfo_veh0 routing_veh0 emissions_veh0 fcd_veh0" vType="veh_passenger" speedFactor="1.06" vaporized="">
        <emissions CO_abs="8605.677964" CO2_abs="520104.945957" HC_abs="51.725060" PMx_abs="11.095669" NOx_abs="211.155891" fuel_abs="165888.812620" electricity_abs="0"/>
    </tripinfo>
    <tripinfo id="veh32" depart="36.00" departLane="-888160868#2_0" departPos="5.10" departSpeed="0.00" departDelay="0.40" arrival="105.00" arrivalLane="888155717#3_0" arrivalPos="67.80" arrivalSpeed="15.99" duration="69.00" routeLength="1111.54" waitingTime="0.00" waitingCount="0" stopTime="0.00" timeLoss="23.45" rerouteNo="1" devices="tripinfo_veh32 routing_veh32 emissions_veh32 fcd_veh32" vType="veh_passenger" speedFactor="1.15" vaporized="">
        <emissions CO_abs="8738.027162" CO2_abs="502060.661201" HC_abs="52.127126" PMx_abs="11.274909" NOx_abs="214.256257" fuel_abs="160132.712756" electricity_abs="0"/>
    </tripinfo>
    <tripinfo id="veh40" depart="45.00" departLane="-889504806#1_0" departPos="5.10" departSpeed="0.00" departDelay="0.50" arrival="107.00" arrivalLane="-887771596#0_0" arrivalPos="29.83" arrivalSpeed="11.30" duration="62.00" routeLength="819.41" waitingTime="0.00" waitingCount="0" stopTime="0.00" timeLoss="15.80" rerouteNo="1" devices="tripinfo_veh40 routing_veh40 emissions_veh40 fcd_veh40" vType="veh_passenger" speedFactor="0.90" vaporized="">
        <emissions CO_abs="4170.001318" CO2_abs="270086.413892" HC_abs="25.392609" PMx_abs="5.381850" NOx_abs="111.158219" fuel_abs="86144.693731" electricity_abs="0"/>
    </tripinfo>
    <tripinfo id="veh26" depart="29.00" departLane="-885389918#0_0" departPos="5.10" departSpeed="0.00" departDelay="0.07" arrival="109.00" arrivalLane="-885395971#0_0" arrivalPos="172.00" arrivalSpeed="11.54" duration="80.00" routeLength="941.26" waitingTime="0.00" waitingCount="0" stopTime="0.00" timeLoss="20.27" rerouteNo="1" devices="tripinfo_veh26 routing_veh26 emissions_veh26 fcd_veh26" vType="veh_passenger" speedFactor="0.87" vaporized="">
        <emissions CO_abs="5065.295266" CO2_abs="321389.687500" HC_abs="30.604407" PMx_abs="6.017172" NOx_abs="130.875755" fuel_abs="102508.422775" electricity_abs="0"/>
    </tripinfo>
    <tripinfo id="veh31" depart="35.00" departLane="-887775249#1_0" departPos="5.10" departSpeed="0.00" departDelay="0.51" arrival="124.00" arrivalLane="-301007089#0_0" arrivalPos="99.94" arrivalSpeed="15.31" duration="89.00" routeLength="850.52" waitingTime="9.00" waitingCount="1" stopTime="0.00" timeLoss="33.99" rerouteNo="1" devices="tripinfo_veh31 routing_veh31 emissions_veh31 fcd_veh31" vType="veh_passenger" speedFactor="1.18" vaporized="">
        <emissions CO_abs="6946.824513" CO2_abs="348377.355310" HC_abs="39.789017" PMx_abs="6.817169" NOx_abs="146.284451" fuel_abs="111116.623468" electricity_abs="0"/>
    </tripinfo>
    <tripinfo id="veh38" depart="43.00" departLane="472714560#4_0" departPos="5.10" departSpeed="0.00" departDelay="0.72" arrival="130.00" arrivalLane="-888155716#0_0" arrivalPos="0.20" arrivalSpeed="10.46" duration="87.00" routeLength="732.60" waitingTime="13.00" waitingCount="2" stopTime="0.00" timeLoss="41.32" rerouteNo="1" devices="tripinfo_veh38 routing_veh38 emissions_veh38 fcd_veh38" vType="veh_passenger" speedFactor="1.18" vaporized="">
        <emissions CO_abs="7640.854592" CO2_abs="343745.602083" HC_abs="42.778346" PMx_abs="6.880198" NOx_abs="145.558367" fuel_abs="109639.596085" electricity_abs="0"/>
    </tripinfo>
    <tripinfo id="veh14" depart="16.00" departLane="-445291914#1_1" departPos="5.10" departSpeed="0.00" departDelay="0.42" arrival="134.00" arrivalLane="891208434#6_1" arrivalPos="15.12" arrivalSpeed="26.60" duration="118.00" routeLength="1628.73" waitingTime="0.00" waitingCount="0" stopTime="0.00" timeLoss="15.78" rerouteNo="1" devices="tripinfo_veh14 routing_veh14 emissions_veh14 fcd_veh14" vType="veh_passenger" speedFactor="0.99" vaporized="">
        <emissions CO_abs="7910.204482" CO2_abs="498175.623739" HC_abs="47.912091" PMx_abs="9.805539" NOx_abs="199.829932" fuel_abs="158894.918406" electricity_abs="0"/>
    </tripinfo>
    <tripinfo id="veh9" depart="11.00" departLane="889119742_0" departPos="5.10" departSpeed="0.00" departDelay="0.99" arrival="139.00" arrivalLane="885380942#4_0" arrivalPos="103.25" arrivalSpeed="18.35" duration="128.00" routeLength="1497.46" waitingTime="5.00" waitingCount="1" stopTime="0.00" timeLoss="35.96" rerouteNo="1" devices="tripinfo_veh9 routing_veh9 emissions_veh9 fcd_veh9" vType="veh_passenger" speedFactor="0.86" vaporized="">
        <emissions CO_abs="8781.590170" CO2_abs="533399.986138" HC_abs="52.482418" PMx_abs="10.224433" NOx_abs="220.326874" fuel_abs="170129.713567" electricity_abs="0"/>
    </tripinfo>
    <tripinfo id="veh1" depart="2.00" departLane="-888155727#0_0" departPos="5.10" departSpeed="0.00" departDelay="0.89" arrival="141.00" arrivalLane="887771598#3_0" arrivalPos="108.60" arrivalSpeed="12.46" duration="139.00" routeLength="1253.77" waitingTime="23.00" waitingCount="2" stopTime="0.00" timeLoss="52.93" rerouteNo="1" devices="tripinfo_veh1 routing_veh1 emissions_veh1 fcd_veh1" vType="veh_passenger" speedFactor="0.94" vaporized="">
        <emissions CO_abs="11077.196195" CO2_abs="514890.959658" HC_abs="62.553369" PMx_abs="10.115781" NOx_abs="216.263357" fuel_abs="164227.465111" electricity_abs="0"/>
    </tripinfo>
    <tripinfo id="veh69" depart="77.00" departLane="-888155716#3_0" departPos="0.20" departSpeed="0.00" departDelay="0.24" arrival="141.00" arrivalLane="444357950#11_1" arrivalPos="0.20" arrivalSpeed="24.12" duration="64.00" routeLength="920.62" waitingTime="0.00" waitingCount="0" stopTime="0.00" timeLoss="12.64" rerouteNo="1" devices="tripinfo_veh69 routing_veh69 emissions_veh69 fcd_veh69" vType="veh_passenger" speedFactor="0.91" vaporized="">
        <emissions CO_abs="4035.046740" CO2_abs="289230.953663" HC_abs="25.116156" PMx_abs="5.428183" NOx_abs="114.547672" fuel_abs="92251.167324" electricity_abs="0"/>
    </tripinfo>
    <tripinfo id="veh21" depart="24.00" departLane="472714560#1_0" departPos="5.10" departSpeed="0.00" departDelay="0.64" arrival="143.00" arrivalLane="-888155729#3_0" arrivalPos="8.19" arrivalSpeed="13.96" duration="119.00" routeLength="1560.59" waitingTime="7.00" waitingCount="1" stopTime="0.00" timeLoss="35.78" rerouteNo="1" devices="tripinfo_veh21 routing_veh21 emissions_veh21 fcd_veh21" vType="veh_passenger" speedFactor="1.01" vaporized="">
        <emissions CO_abs="8750.278525" CO2_abs="518082.984495" HC_abs="51.986433" PMx_abs="10.150345" NOx_abs="209.899005" fuel_abs="165244.613828" electricity_abs="0"/>
    </tripinfo>
    <tripinfo id="veh29" depart="33.00" departLane="-472714557#5_0" departPos="5.10" departSpeed="0.00" departDelay="0.74" arrival="149.00" arrivalLane="885380946#2_0" arrivalPos="81.88" arrivalSpeed="30.55" duration="116.00" routeLength="1669.53" waitingTime="1.00" waitingCount="1" stopTime="0.00" timeLoss="26.59" rerouteNo="1" devices="tripinfo_veh29 routing_veh29 emissions_veh29 fcd_veh29" vType="veh_passenger" speedFactor="1.13" vaporized="">
        <emissions CO_abs="11133.326331" CO2_abs="628733.390266" HC_abs="66.060924" PMx_abs="13.422105" NOx_abs="260.223829" fuel_abs="200536.285902" electricity_abs="0"/>
    </tripinfo>
    <tripinfo id="veh62" depart="69.00" departLane="888160862_0" departPos="5.10" departSpeed="0.00" departDelay="0.02" arrival="151.00" arrivalLane="888155727#0_0" arrivalPos="55.73" arrivalSpeed="14.71" duration="82.00" routeLength="987.71" waitingTime="0.00" waitingCount="0" stopTime="0.00" timeLoss="22.17" rerouteNo="1" devices="tripinfo_veh62 routing_veh62 emissions_veh62 fcd_veh62" vType="veh_passenger" speedFactor="1.08" vaporized="">
        <emissions CO_abs="5859.478385" CO2_abs="385601.941659" HC_abs="35.783689" PMx_abs="7.528522" NOx_abs="161.110243" fuel_abs="122988.505227" electricity_abs="0"/>
    </tripinfo>
    <tripinfo id="veh13" depart="15.00" departLane="887815454#2_0" departPos="5.10" departSpeed="0.00" departDelay="0.54" arrival="152.00" arrivalLane="885395971#1_0" arrivalPos="36.73" arrivalSpeed="15.18" duration="137.00" routeLength="2596.21" waitingTime="0.00" waitingCount="0" stopTime="0.00" timeLoss="37.44" rerouteNo="1" devices="tripinfo_veh13 routing_veh13 emissions_veh13 fcd_veh13" vType="veh_passenger" speedFactor="1.12" vaporized="">
        <emissions CO_abs="15214.521594" CO2_abs="929543.696365" HC_abs="92.208089" PMx_abs="20.637784" NOx_abs="385.271068" fuel_abs="296479.233502" electricity_abs="0"/>
    </tripinfo>
    <tripinfo id="veh18" depart="21.00" departLane="885384073#5_1" departPos="5.10" departSpeed="0.00" departDelay="0.97" arrival="156.00" arrivalLane="-301007097#3_0" arrivalPos="53.23" arrivalSpeed="12.18" duration="135.00" routeLength="1919.95" waitingTime="0.00" waitingCount="0" stopTime="0.00" timeLoss="34.83" rerouteNo="1" devices="tripinfo_veh18 routing_veh18 emissions_veh18 fcd_veh18" vType="veh_passenger" speedFactor="0.94" vaporized="">
        <emissions CO_abs="9714.564407" CO2_abs="621248.765164" HC_abs="59.185730" PMx_abs="12.547706" NOx_abs="255.832398" fuel_abs="198148.751137" electricity_abs="0"/>
    </tripinfo>
    <tripinfo id="veh43" depart="48.00" departLane="-472714577#0_0" departPos="5.10" departSpeed="0.00" departDelay="0.16" arrival="158.00" arrivalLane="885354458_0" arrivalPos="111.75" arrivalSpeed="14.76" duration="110.00" routeLength="1289.68" waitingTime="0.00" waitingCount="0" stopTime="0.00" timeLoss="21.19" rerouteNo="1" devices="tripinfo_veh43 routing_veh43 emissions_veh43 fcd_veh43" vType="veh_passenger" speedFactor="1.09" vaporized="">
        <emissions CO_abs="7295.481559" CO2_abs="450070.274982" HC_abs="43.846601" PMx_abs="8.702400" NOx_abs="186.455643" fuel_abs="143551.288502" electricity_abs="0"/>
    </tripinfo>
    <tripinfo id="veh16" depart="18.00" departLane="-888155715#2_0" departPos="5.10" departSpeed="0.00" departDelay="0.20" arrival="165.00" arrivalLane="885354449#1_0" arrivalPos="33.18" arrivalSpeed="12.17" duration="147.00" routeLength="1713.44" waitingTime="1.00" waitingCount="1" stopTime="0.00" timeLoss="37.17" rerouteNo="1" devices="tripinfo_veh16 routing_veh16 emissions_veh16 fcd_veh16" vType="veh_passenger" speedFactor="0.88" vaporized="">
        <emissions CO_abs="8819.614936" CO2_abs="563654.228308" HC_abs="53.295796" PMx_abs="10.432688" NOx_abs="228.288453" fuel_abs="179779.692696" electricity_abs="0"/>
    </tripinfo>
    <tripinfo id="veh35" depart="39.00" departLane="885380939#0_0" departPos="5.10" departSpeed="0.00" departDelay="0.06" arrival="166.00" arrivalLane="889441218#0_1" arrivalPos="46.38" arrivalSpeed="14.47" duration="127.00" routeLength="2029.81" waitingTime="0.00" waitingCount="0" stopTime="0.00" timeLoss="35.91" rerouteNo="1" devices="tripinfo_veh35 routing_veh35 emissions_veh35 fcd_veh35" vType="veh_passenger" speedFactor="0.99" vaporized="">
        <emissions CO_abs="10620.268720" CO2_abs="696715.445835" HC_abs="65.064051" PMx_abs="14.499662" NOx_abs="288.305910" fuel_abs="222218.433863" electricity_abs="0"/>
    </tripinfo>
    <tripinfo id="veh49" depart="55.00" departLane="885380945#4_1" departPos="5.10" departSpeed="0.00" departDelay="0.49" arrival="170.00" arrivalLane="447791042_0" arrivalPos="36.25" arrivalSpeed="24.35" duration="115.00" routeLength="2149.71" waitingTime="0.00" waitingCount="0" stopTime="0.00" timeLoss="22.76" rerouteNo="1" devices="tripinfo_veh49 routing_veh49 emissions_veh49 fcd_veh49" vType="veh_passenger" speedFactor="0.88" vaporized="">
        <emissions CO_abs="7674.414080" CO2_abs="602683.781905" HC_abs="48.941117" PMx_abs="11.814171" NOx_abs="236.324093" fuel_abs="192227.268798" electricity_abs="0"/>
    </tripinfo>
    <tripinfo id="veh117" depart="131.00" departLane="444361593#2_0" departPos="5.10" departSpeed="0.00" departDelay="0.84" arrival="170.00" arrivalLane="889138277#2_0" arrivalPos="22.25" arrivalSpeed="28.13" duration="39.00" routeLength="596.76" waitingTime="0.00" waitingCount="0" stopTime="0.00" timeLoss="14.84" rerouteNo="1" devices="tripinfo_veh117 routing_veh117 emissions_veh117 fcd_veh117" vType="veh_passenger" speedFactor="1.10" vaporized="">
        <emissions CO_abs="5505.368392" CO2_abs="328320.700126" HC_abs="33.110431" PMx_abs="7.309329" NOx_abs="140.673446" fuel_abs="104718.054904" electricity_abs="0"/>
    </tripinfo>
    <tripinfo id="veh61" depart="68.00" departLane="-119045603#0_0" departPos="5.10" departSpeed="0.00" departDelay="0.14" arrival="171.00" arrivalLane="-889135582#1_0" arrivalPos="62.72" arrivalSpeed="12.70" duration="103.00" routeLength="1906.13" waitingTime="0.00" waitingCount="0" stopTime="0.00" timeLoss="25.04" rerouteNo="1" devices="tripinfo_veh61 routing_veh61 emissions_veh61 fcd_veh61" vType="veh_passenger" speedFactor="0.97" vaporized="">
        <emissions CO_abs="9271.931715" CO2_abs="622865.466359" HC_abs="57.226189" PMx_abs="13.256176" NOx_abs="255.791463" fuel_abs="198663.686290" electricity_abs="0"/>
    </tripinfo>
    <tripinfo id="veh20" depart="23.00" departLane="-444509134#0_0" departPos="5.10" departSpeed="0.00" departDelay="0.75" arrival="180.00" arrivalLane="-887776077#4_0" arrivalPos="62.21" arrivalSpeed="12.95" duration="157.00" routeLength="1544.38" waitingTime="26.00" waitingCount="1" stopTime="0.00" timeLoss="69.26" rerouteNo="1" devices="tripinfo_veh20 routing_veh20 emissions_veh20 fcd_veh20" vType="veh_passenger" speedFactor="1.02" vaporized="">
        <emissions CO_abs="14212.042058" CO2_abs="671773.303891" HC_abs="80.598620" PMx_abs="13.820476" NOx_abs="285.189419" fuel_abs="214265.177432" electricity_abs="0"/>
    </tripinfo>
    <tripinfo id="veh39" depart="44.00" departLane="472717507#1_0" departPos="5.10" departSpeed="0.00" departDelay="0.61" arrival="180.00" arrivalLane="889119739#2_0" arrivalPos="68.79" arrivalSpeed="14.88" duration="136.00" routeLength="2262.05" waitingTime="0.00" waitingCount="0" stopTime="0.00" timeLoss="35.26" rerouteNo="1" devices="tripinfo_veh39 routing_veh39 emissions_veh39 fcd_veh39" vType="veh_passenger" speedFactor="1.10" vaporized="">
        <emissions CO_abs="13604.077419" CO2_abs="843814.230009" HC_abs="82.385129" PMx_abs="18.176806" NOx_abs="350.745271" fuel_abs="269135.796161" electricity_abs="0"/>
    </tripinfo>
    <tripinfo id="veh76" depart="85.00" departLane="887776076#0_0" departPos="5.10" departSpeed="0.00" departDelay="0.45" arrival="183.00" arrivalLane="-887771596#1_0" arrivalPos="40.59" arrivalSpeed="12.30" duration="98.00" routeLength="1225.76" waitingTime="0.00" waitingCount="0" stopTime="0.00" timeLoss="28.77" rerouteNo="1" devices="tripinfo_veh76 routing_veh76 emissions_veh76 fcd_veh76" vType="veh_passenger" speedFactor="0.96" vaporized="">
        <emissions CO_abs="7479.642200" CO2_abs="462494.503699" HC_abs="45.058967" PMx_abs="9.240942" NOx_abs="193.306782" fuel_abs="147513.710994" electricity_abs="0"/>
    </tripinfo>
    <tripinfo id="veh27" depart="31.00" departLane="885389911#2_0" departPos="5.10" departSpeed="0.00" departDelay="0.96" arrival="184.00" arrivalLane="-889162219#1_0" arrivalPos="20.17" arrivalSpeed="25.27" duration="153.00" routeLength="1833.52" waitingTime="9.00" waitingCount="2" stopTime="0.00" timeLoss="43.53" rerouteNo="1" devices="tripinfo_veh27 routing_veh27 emissions_veh27 fcd_veh27" vType="veh_passenger" speedFactor="0.92" vaporized="">
        <emissions CO_abs="10748.300908" CO2_abs="626111.792392" HC_abs="63.503084" PMx_abs="11.944001" NOx_abs="255.769269" fuel_abs="199700.963534" electricity_abs="0"/>
    </tripinfo>
    <tripinfo id="veh66" depart="74.00" departLane="444357950#6_0" departPos="5.10" departSpeed="0.00" departDelay="0.57" arrival="184.00" arrivalLane="885773074_0" arrivalPos="52.00" arrivalSpeed="11.83" duration="110.00" routeLength="1807.55" waitingTime="0.00" waitingCount="0" stopTime="0.00" timeLoss="24.94" rerouteNo="1" devices="tripinfo_veh66 routing_veh66 emissions_veh66 fcd_veh66" vType="veh_passenger" speedFactor="0.94" vaporized="">
        <emissions CO_abs="8002.985005" CO2_abs="564332.469797" HC_abs="49.914447" PMx_abs="11.341919" NOx_abs="228.757703" fuel_abs="179994.943577" electricity_abs="0"/>
    </tripinfo>
    <tripinfo id="veh99" depart="116.00" departLane="-889504806#4_0" departPos="5.10" departSpeed="0.00" departDelay="5.86" arrival="187.00" arrivalLane="-326546173#1_0" arrivalPos="166.59" arrivalSpeed="8.12" duration="71.00" routeLength="840.02" waitingTime="1.00" waitingCount="1" stopTime="0.00" timeLoss="23.30" rerouteNo="1" devices="tripinfo_veh99 routing_veh99 emissions_veh99 fcd_veh99" vType="veh_passenger" speedFactor="1.01" vaporized="">
        <emissions CO_abs="5766.350667" CO2_abs="316548.500104" HC_abs="33.784210" PMx_abs="6.470206" NOx_abs="132.044818" fuel_abs="100964.213789" electricity_abs="0"/>
    </tripinfo>
    <tripinfo id="veh52" depart="58.00" departLane="119045603#2_0" departPos="5.10" departSpeed="0.00" departDelay="0.15" arrival="188.00" arrivalLane="-889203283_0" arrivalPos="33.72" arrivalSpeed="12.46" duration="130.00" routeLength="1916.67" waitingTime="18.00" waitingCount="1" stopTime="0.00" timeLoss="54.86" rerouteNo="1" devices="tripinfo_veh52 routing_veh52 emissions_veh52 fcd_veh52" vType="veh_passenger" speedFactor="1.17" vaporized="">
        <emissions CO_abs="15759.569542" CO2_abs="799412.910985" HC_abs="91.315234" PMx_abs="17.893462" NOx_abs="339.518874" fuel_abs="254974.808933" electricity_abs="0"/>
    </tripinfo>
    <tripinfo id="veh33" depart="37.00" departLane="-885768930_0" departPos="5.10" departSpeed="0.00" departDelay="0.29" arrival="189.00" arrivalLane="-889162219#1_0" arrivalPos="20.17" arrivalSpeed="27.17" duration="152.00" routeLength="2021.08" waitingTime="3.00" waitingCount="1" stopTime="0.00" timeLoss="40.24" rerouteNo="1" devices="tripinfo_veh33 routing_veh33 emissions_veh33 fcd_veh33" vType="veh_passenger" speedFactor="1.01" vaporized="">
        <emissions CO_abs="12455.312800" CO2_abs="748635.581305" HC_abs="74.626004" PMx_abs="15.267236" NOx_abs="309.000466" fuel_abs="238779.394928" electricity_abs="0"/>
    </tripinfo>
    <tripinfo id="veh79" depart="88.00" departLane="888157361#0_0" departPos="5.10" departSpeed="0.00" departDelay="0.11" arrival="190.00" arrivalLane="-444357950#7_0" arrivalPos="55.71" arrivalSpeed="28.66" duration="102.00" routeLength="717.25" waitingTime="40.00" waitingCount="1" stopTime="0.00" timeLoss="64.40" rerouteNo="1" devices="tripinfo_veh79 routing_veh79 emissions_veh79 fcd_veh79" vType="veh_passenger" speedFactor="1.03" vaporized="">
        <emissions CO_abs="12608.366729" CO2_abs="442705.630635" HC_abs="68.048211" PMx_abs="9.718166" NOx_abs="190.830777" fuel_abs="141204.478694" electricity_abs="0"/>
    </tripinfo>
    <tripinfo id="veh54" depart="61.00" departLane="444357950#0_0" departPos="5.10" departSpeed="0.00" departDelay="0.92" arrival="192.00" arrivalLane="-885389925_0" arrivalPos="50.54" arrivalSpeed="14.64" duration="131.00" routeLength="2524.33" waitingTime="0.00" waitingCount="0" stopTime="0.00" timeLoss="36.42" rerouteNo="1" devices="tripinfo_veh54 routing_veh54 emissions_veh54 fcd_veh54" vType="veh_passenger" speedFactor="1.10" vaporized="">
        <emissions CO_abs="13866.129866" CO2_abs="870173.986243" HC_abs="84.565837" PMx_abs="19.240510" NOx_abs="360.894862" fuel_abs="277542.964569" electricity_abs="0"/>
    </tripinfo>
    <tripinfo id="veh85" depart="95.00" departLane="-1083485614#1_0" departPos="5.10" departSpeed="0.00" departDelay="0.44" arrival="193.00" arrivalLane="301007093#4_0" arrivalPos="6.20" arrivalSpeed="4.87" duration="98.00" routeLength="1237.02" waitingTime="1.00" waitingCount="1" stopTime="0.00" timeLoss="25.70" rerouteNo="1" devices="tripinfo_veh85 routing_veh85 emissions_veh85 fcd_veh85" vType="veh_passenger" speedFactor="1.02" vaporized="">
        <emissions CO_abs="6804.757963" CO2_abs="421566.352688" HC_abs="40.875452" PMx_abs="8.334942" NOx_abs="173.918594" fuel_abs="134459.779264" electricity_abs="0"/>
    </tripinfo>
    <tripinfo id="veh83" depart="93.00" departLane="301007090#1_0" departPos="5.10" departSpeed="0.00" departDelay="0.66" arrival="196.00" arrivalLane="887777135#2_0" arrivalPos="32.15" arrivalSpeed="13.28" duration="103.00" routeLength="801.71" waitingTime="3.00" waitingCount="2" stopTime="0.00" timeLoss="31.40" rerouteNo="1" devices="tripinfo_veh83 routing_veh83 emissions_veh83 fcd_veh83" vType="veh_passenger" speedFactor="1.03" vaporized="">
        <emissions CO_abs="7668.452195" CO2_abs="361836.229675" HC_abs="43.364952" PMx_abs="6.853307" NOx_abs="152.000918" fuel_abs="115409.851033" electricity_abs="0"/>
    </tripinfo>
    <tripinfo id="veh90" depart="101.00" departLane="885409871#5_0" departPos="5.10" departSpeed="0.00" departDelay="0.87" arrival="196.00" arrivalLane="119045605#3_1" arrivalPos="314.97" arrivalSpeed="27.95" duration="95.00" routeLength="1506.92" waitingTime="1.00" waitingCount="1" stopTime="0.00" timeLoss="38.31" rerouteNo="1" devices="tripinfo_veh90 routing_veh90 emissions_veh90 fcd_veh90" vType="veh_passenger" speedFactor="1.04" vaporized="">
        <emissions CO_abs="11379.914442" CO2_abs="676046.590467" HC_abs="68.397736" PMx_abs="14.878203" NOx_abs="285.762413" fuel_abs="215625.845603" electricity_abs="0"/>
    </tripinfo>
    <tripinfo id="veh111" depart="124.00" departLane="444509134#1_0" departPos="3.11" departSpeed="0.00" departDelay="0.51" arrival="196.00" arrivalLane="-885395971#1_0" arrivalPos="37.69" arrivalSpeed="14.02" duration="72.00" routeLength="1084.82" waitingTime="0.00" waitingCount="0" stopTime="0.00" timeLoss="30.14" rerouteNo="1" devices="tripinfo_veh111 routing_veh111 emissions_veh111 fcd_veh111" vType="veh_passenger" speedFactor="1.06" vaporized="">
        <emissions CO_abs="7255.334426" CO2_abs="445186.019050" HC_abs="43.858391" PMx_abs="9.595474" NOx_abs="187.676620" fuel_abs="141992.604610" electricity_abs="0"/>
    </tripinfo>
    <tripinfo id="veh45" depart="51.00" departLane="-444357950#11_1" departPos="0.20" departSpeed="0.00" departDelay="0.94" arrival="197.00" arrivalLane="-889162219#3_1" arrivalPos="15.45" arrivalSpeed="21.22" duration="146.00" routeLength="1678.10" waitingTime="7.00" waitingCount="2" stopTime="0.00" timeLoss="64.82" rerouteNo="1" devices="tripinfo_veh45 routing_veh45 emissions_veh45 fcd_veh45" vType="veh_passenger" speedFactor="1.04" vaporized="">
        <emissions CO_abs="12480.093509" CO2_abs="683367.322742" HC_abs="73.051711" PMx_abs="13.853221" NOx_abs="286.021499" fuel_abs="217962.297984" electricity_abs="0"/>
    </tripinfo>
    <tripinfo id="veh88" depart="98.00" departLane="-891208434#10_1" departPos="5.10" departSpeed="0.00" departDelay="0.10" arrival="197.00" arrivalLane="889119741#0_0" arrivalPos="107.98" arrivalSpeed="13.26" duration="99.00" routeLength="1718.11" waitingTime="0.00" waitingCount="0" stopTime="0.00" timeLoss="16.20" rerouteNo="1" devices="tripinfo_veh88 routing_veh88 emissions_veh88 fcd_veh88" vType="veh_passenger" speedFactor="0.98" vaporized="">
        <emissions CO_abs="6996.539702" CO2_abs="499604.654179" HC_abs="43.772213" PMx_abs="10.048673" NOx_abs="199.664322" fuel_abs="159350.022654" electricity_abs="0"/>
    </tripinfo>
    <tripinfo id="veh48" depart="54.00" departLane="-1090757046_0" departPos="5.10" departSpeed="0.00" departDelay="0.60" arrival="201.00" arrivalLane="-885389924#2_0" arrivalPos="4.88" arrivalSpeed="11.48" duration="147.00" routeLength="1151.21" waitingTime="32.00" waitingCount="2" stopTime="0.00" timeLoss="66.12" rerouteNo="1" devices="tripinfo_veh48 routing_veh48 emissions_veh48 fcd_veh48" vType="veh_passenger" speedFactor="0.90" vaporized="">
        <emissions CO_abs="13103.531100" CO2_abs="533024.051015" HC_abs="72.170933" PMx_abs="10.718364" NOx_abs="225.916131" fuel_abs="170011.853688" electricity_abs="0"/>
    </tripinfo>
    <tripinfo id="veh25" depart="28.00" departLane="885380937#0_0" departPos="5.10" departSpeed="0.00" departDelay="0.19" arrival="202.00" arrivalLane="720356492#2_0" arrivalPos="28.82" arrivalSpeed="18.15" duration="174.00" routeLength="2179.85" waitingTime="0.00" waitingCount="0" stopTime="0.00" timeLoss="35.44" rerouteNo="1" devices="tripinfo_veh25 routing_veh25 emissions_veh25 fcd_veh25" vType="veh_passenger" speedFactor="0.83" vaporized="">
        <emissions CO_abs="9532.441120" CO2_abs="682814.316753" HC_abs="58.931177" PMx_abs="12.422774" NOx_abs="275.376429" fuel_abs="217785.657985" electricity_abs="0"/>
    </tripinfo>
    <tripinfo id="veh81" depart="91.00" departLane="-885768951_0" departPos="5.10" departSpeed="0.00" departDelay="0.89" arrival="203.00" arrivalLane="-840315695#1_0" arrivalPos="100.28" arrivalSpeed="13.57" duration="112.00" routeLength="1687.50" waitingTime="0.00" waitingCount="0" stopTime="0.00" timeLoss="37.22" rerouteNo="1" devices="tripinfo_veh81 routing_veh81 emissions_veh81 fcd_veh81" vType="veh_passenger" speedFactor="1.01" vaporized="">
        <emissions CO_abs="10612.324574" CO2_abs="675326.318360" HC_abs="64.652570" PMx_abs="14.187139" NOx_abs="282.122475" fuel_abs="215396.301578" electricity_abs="0"/>
    </tripinfo>
    <tripinfo id="veh28" depart="32.00" departLane="891820957#0_0" departPos="5.10" departSpeed="0.00" departDelay="0.85" arrival="204.00" arrivalLane="885380937#2_1" arrivalPos="203.01" arrivalSpeed="25.96" duration="172.00" routeLength="2070.47" waitingTime="0.00" waitingCount="0" stopTime="0.00" timeLoss="25.28" rerouteNo="1" devices="tripinfo_veh28 routing_veh28 emissions_veh28 fcd_veh28" vType="veh_passenger" speedFactor="0.95" vaporized="">
        <emissions CO_abs="10101.558881" CO2_abs="617518.576665" HC_abs="60.594282" PMx_abs="11.590462" NOx_abs="246.942099" fuel_abs="196960.395858" electricity_abs="0"/>
    </tripinfo>