<?xml version="1.0" encoding="UTF-8"?>

<!-- generated on 2024-04-01 01:40:12 by Eclipse SUMO GUI Version 1.19.0
<configuration xmlns:xsi="http://www.w3.org/2001/XMLSchema-instance" xsi:noNamespaceSchemaLocation="http://sumo.dlr.de/xsd/sumoConfiguration.xsd">

    <input>
        <net-file value="osm.net.xml.gz"/>
        <route-files value="osm.passenger.trips.xml"/>
        <additional-files value="osm.poly.xml.gz"/>
    </input>

    <output>
        <netstate-dump value="my_dump_file.xml"/>
        <emission-output value="my_emission_file.xml"/>
        <fcd-output value="sumoTrace.xml"/>
        <tripinfo-output value="tripinfo.xml"/>
        <lanechange-output value="my_lane_change_file.xml"/>
    </output>

    <time>
        <begin value="0"/>
        <end value="500"/>
    </time>

    <report>
        <verbose value="true"/>
        <no-step-log value="true"/>
    </report>

    <traci_server>
        <remote-port value="64783"/>
    </traci_server>

</configuration>
-->

<tripinfos xmlns:xsi="http://www.w3.org/2001/XMLSchema-instance" xsi:noNamespaceSchemaLocation="http://sumo.dlr.de/xsd/tripinfo_file.xsd">
    <tripinfo id="veh2" depart="3.00" departLane="885409870#1_0" departPos="5.10" departSpeed="0.00" departDelay="0.77" arrival="60.00" arrivalLane="885380945#4_1" arrivalPos="123.81" arrivalSpeed="26.80" duration="57.00" routeLength="806.71" waitingTime="0.00" waitingCount="0" stopTime="0.00" timeLoss="22.89" rerouteNo="1" devices="tripinfo_veh2 routing_veh2 emissions_veh2 fcd_veh2" vType="veh_passenger" speedFactor="1.01" vaporized="">
        <emissions CO_abs="6382.162813" CO2_abs="389459.740704" HC_abs="38.507718" PMx_abs="8.418548" NOx_abs="165.594986" fuel_abs="124218.541068" electricity_abs="0"/>
    </tripinfo>
    <tripinfo id="veh10" depart="12.00" departLane="889162219#3_0" departPos="5.10" departSpeed="0.00" departDelay="0.87" arrival="76.00" arrivalLane="889119738#2_0" arrivalPos="20.12" arrivalSpeed="15.11" duration="64.00" routeLength="1027.37" waitingTime="0.00" waitingCount="0" stopTime="0.00" timeLoss="19.84" rerouteNo="1" devices="tripinfo_veh10 routing_veh10 emissions_veh10 fcd_veh10" vType="veh_passenger" speedFactor="1.09" vaporized="">
        <emissions CO_abs="6078.861808" CO2_abs="385351.958379" HC_abs="36.919982" PMx_abs="8.205099" NOx_abs="161.025707" fuel_abs="122908.484870" electricity_abs="0"/>
    </tripinfo>
    <tripinfo id="veh34" depart="38.00" departLane="888160860#2_0" departPos="5.10" departSpeed="0.00" departDelay="0.17" arrival="86.00" arrivalLane="-888160868#1_0" arrivalPos="45.15" arrivalSpeed="15.18" duration="48.00" routeLength="529.35" waitingTime="0.00" waitingCount="0" stopTime="0.00" timeLoss="20.67" rerouteNo="1" devices="tripinfo_veh34 routing_veh34 emissions_veh34 fcd_veh34" vType="veh_passenger" speedFactor="1.17" vaporized="">
        <emissions CO_abs="4560.206953" CO2_abs="268355.436128" HC_abs="27.214349" PMx_abs="5.531329" NOx_abs="114.858185" fuel_abs="85592.432753" electricity_abs="0"/>
    </tripinfo>
    <tripinfo id="veh6" depart="7.00" departLane="885380937#1_0" departPos="5.10" departSpeed="0.00" departDelay="0.32" arrival="96.00" arrivalLane="447791045#1_0" arrivalPos="412.75" arrivalSpeed="28.92" duration="89.00" routeLength="1867.68" waitingTime="0.00" waitingCount="0" stopTime="0.00" timeLoss="20.84" rerouteNo="1" devices="tripinfo_veh6 routing_veh6 emissions_veh6 fcd_veh6" vType="veh_passenger" speedFactor="1.05" vaporized="">
        <emissions CO_abs="10002.029474" CO2_abs="642501.473197" HC_abs="61.369933" PMx_abs="14.226484" NOx_abs="264.064374" fuel_abs="204926.585041" electricity_abs="0"/>
    </tripinfo>
    <tripinfo id="veh32" depart="36.00" departLane="-888160868#2_0" departPos="5.10" departSpeed="0.00" departDelay="0.40" arrival="103.00" arrivalLane="888155717#3_0" arrivalPos="67.80" arrivalSpeed="15.94" duration="67.00" routeLength="1111.54" waitingTime="0.00" waitingCount="0" stopTime="0.00" timeLoss="22.14" rerouteNo="1" devices="tripinfo_veh32 routing_veh32 emissions_veh32 fcd_veh32" vType="veh_passenger" speedFactor="1.15" vaporized="">
        <emissions CO_abs="7343.668627" CO2_abs="426002.913232" HC_abs="43.917605" PMx_abs="9.313035" NOx_abs="176.472765" fuel_abs="135874.551515" electricity_abs="0"/>
    </tripinfo>
    <tripinfo id="veh0" depart="0.00" departLane="885380933_0" departPos="5.10" departSpeed="29.45" departDelay="0.00" arrival="105.00" arrivalLane="-1202728905#0_0" arrivalPos="13.66" arrivalSpeed="10.63" duration="105.00" routeLength="1864.44" waitingTime="3.00" waitingCount="1" stopTime="0.00" timeLoss="28.56" rerouteNo="1" devices="tripinfo_veh0 routing_veh0 emissions_veh0 fcd_veh0" vType="veh_passenger" speedFactor="1.06" vaporized="">
        <emissions CO_abs="8800.618597" CO2_abs="529354.255185" HC_abs="52.925141" PMx_abs="11.345484" NOx_abs="215.761020" fuel_abs="168838.862950" electricity_abs="0"/>
    </tripinfo>
    <tripinfo id="veh40" depart="45.00" departLane="-889504806#1_0" departPos="5.10" departSpeed="0.00" departDelay="0.50" arrival="106.00" arrivalLane="-887771596#0_0" arrivalPos="29.83" arrivalSpeed="11.30" duration="61.00" routeLength="819.41" waitingTime="0.00" waitingCount="0" stopTime="0.00" timeLoss="16.81" rerouteNo="1" devices="tripinfo_veh40 routing_veh40 emissions_veh40 fcd_veh40" vType="veh_passenger" speedFactor="0.90" vaporized="">
        <emissions CO_abs="4504.039523" CO2_abs="282550.337641" HC_abs="27.149909" PMx_abs="5.642332" NOx_abs="116.696382" fuel_abs="90120.117615" electricity_abs="0"/>
    </tripinfo>
    <tripinfo id="veh26" depart="29.00" departLane="-885389918#0_0" departPos="5.10" departSpeed="0.00" departDelay="0.07" arrival="108.00" arrivalLane="-885395971#0_0" arrivalPos="172.00" arrivalSpeed="11.56" duration="79.00" routeLength="941.26" waitingTime="0.00" waitingCount="0" stopTime="0.00" timeLoss="20.08" rerouteNo="1" devices="tripinfo_veh26 routing_veh26 emissions_veh26 fcd_veh26" vType="veh_passenger" speedFactor="0.87" vaporized="">
        <emissions CO_abs="5036.434613" CO2_abs="319432.939141" HC_abs="30.411758" PMx_abs="6.030601" NOx_abs="130.503927" fuel_abs="101884.218766" electricity_abs="0"/>
    </tripinfo>
    <tripinfo id="veh38" depart="43.00" departLane="472714560#4_0" departPos="5.10" departSpeed="0.00" departDelay="0.72" arrival="118.00" arrivalLane="-888155716#0_0" arrivalPos="0.20" arrivalSpeed="16.07" duration="75.00" routeLength="732.60" waitingTime="10.00" waitingCount="1" stopTime="0.00" timeLoss="29.53" rerouteNo="1" devices="tripinfo_veh38 routing_veh38 emissions_veh38 fcd_veh38" vType="veh_passenger" speedFactor="1.18" vaporized="">
        <emissions CO_abs="6292.282938" CO2_abs="314171.173800" HC_abs="35.792495" PMx_abs="6.067068" NOx_abs="130.514590" fuel_abs="100206.513644" electricity_abs="0"/>
    </tripinfo>
    <tripinfo id="veh4" depart="5.00" departLane="-887771595#0_0" departPos="5.10" departSpeed="0.00" departDelay="0.55" arrival="121.00" arrivalLane="-444358759#6_0" arrivalPos="20.53" arrivalSpeed="13.82" duration="116.00" routeLength="1679.21" waitingTime="4.00" waitingCount="1" stopTime="0.00" timeLoss="38.21" rerouteNo="1" devices="tripinfo_veh4 routing_veh4 emissions_veh4 fcd_veh4" vType="veh_passenger" speedFactor="1.03" vaporized="">
        <emissions CO_abs="10966.338023" CO2_abs="661163.616093" HC_abs="65.767963" PMx_abs="13.921101" NOx_abs="276.371041" fuel_abs="210879.389349" electricity_abs="0"/>
    </tripinfo>
    <tripinfo id="veh9" depart="11.00" departLane="889119742_0" departPos="5.10" departSpeed="0.00" departDelay="0.99" arrival="130.00" arrivalLane="885380942#4_0" arrivalPos="103.25" arrivalSpeed="18.71" duration="119.00" routeLength="1497.46" waitingTime="0.00" waitingCount="0" stopTime="0.00" timeLoss="26.67" rerouteNo="1" devices="tripinfo_veh9 routing_veh9 emissions_veh9 fcd_veh9" vType="veh_passenger" speedFactor="0.86" vaporized="">
        <emissions CO_abs="6945.659518" CO2_abs="490742.991483" HC_abs="42.920441" PMx_abs="9.014638" NOx_abs="198.952129" fuel_abs="156523.897871" electricity_abs="0"/>
    </tripinfo>
    <tripinfo id="veh14" depart="16.00" departLane="-445291914#1_1" departPos="5.10" departSpeed="0.00" departDelay="0.42" arrival="134.00" arrivalLane="891208434#6_1" arrivalPos="15.12" arrivalSpeed="27.13" duration="118.00" routeLength="1628.73" waitingTime="0.00" waitingCount="0" stopTime="0.00" timeLoss="16.34" rerouteNo="1" devices="tripinfo_veh14 routing_veh14 emissions_veh14 fcd_veh14" vType="veh_passenger" speedFactor="0.99" vaporized="">
        <emissions CO_abs="7746.395353" CO2_abs="494113.302199" HC_abs="46.987112" PMx_abs="9.686786" NOx_abs="197.514800" fuel_abs="157599.237749" electricity_abs="0"/>
    </tripinfo>
    <tripinfo id="veh31" depart="35.00" departLane="-887775249#1_0" departPos="5.10" departSpeed="0.00" departDelay="0.51" arrival="140.00" arrivalLane="-301007089#0_0" arrivalPos="99.94" arrivalSpeed="15.25" duration="105.00" routeLength="850.52" waitingTime="26.00" waitingCount="1" stopTime="0.00" timeLoss="50.06" rerouteNo="1" devices="tripinfo_veh31 routing_veh31 emissions_veh31 fcd_veh31" vType="veh_passenger" speedFactor="1.18" vaporized="">
        <emissions CO_abs="10003.065647" CO2_abs="410530.612917" HC_abs="55.040907" PMx_abs="8.313144" NOx_abs="174.439228" fuel_abs="130941.489608" electricity_abs="0"/>
    </tripinfo>
    <tripinfo id="veh69" depart="77.00" departLane="-888155716#3_0" departPos="0.20" departSpeed="0.00" departDelay="0.24" arrival="140.00" arrivalLane="444357950#11_1" arrivalPos="0.20" arrivalSpeed="25.27" duration="63.00" routeLength="920.62" waitingTime="0.00" waitingCount="0" stopTime="0.00" timeLoss="12.46" rerouteNo="1" devices="tripinfo_veh69 routing_veh69 emissions_veh69 fcd_veh69" vType="veh_passenger" speedFactor="0.91" vaporized="">
        <emissions CO_abs="4544.172681" CO2_abs="301536.979440" HC_abs="27.897694" PMx_abs="5.971660" NOx_abs="123.127539" fuel_abs="96175.981688" electricity_abs="0"/>
    </tripinfo>
    <tripinfo id="veh21" depart="24.00" departLane="472714560#1_0" departPos="5.10" departSpeed="0.00" departDelay="0.64" arrival="141.00" arrivalLane="-888155729#3_0" arrivalPos="8.19" arrivalSpeed="13.43" duration="117.00" routeLength="1560.59" waitingTime="8.00" waitingCount="1" stopTime="0.00" timeLoss="33.42" rerouteNo="1" devices="tripinfo_veh21 routing_veh21 emissions_veh21 fcd_veh21" vType="veh_passenger" speedFactor="1.01" vaporized="">
        <emissions CO_abs="8318.902311" CO2_abs="485115.589481" HC_abs="49.312302" PMx_abs="9.442593" NOx_abs="196.702820" fuel_abs="154729.667794" electricity_abs="0"/>
    </tripinfo>
    <tripinfo id="veh29" depart="33.00" departLane="-472714557#5_0" departPos="5.10" departSpeed="0.00" departDelay="0.74" arrival="144.00" arrivalLane="885380946#2_0" arrivalPos="81.88" arrivalSpeed="30.46" duration="111.00" routeLength="1669.53" waitingTime="0.00" waitingCount="0" stopTime="0.00" timeLoss="22.41" rerouteNo="1" devices="tripinfo_veh29 routing_veh29 emissions_veh29 fcd_veh29" vType="veh_passenger" speedFactor="1.13" vaporized="">
        <emissions CO_abs="10101.306507" CO2_abs="605241.290034" HC_abs="60.819919" PMx_abs="12.768663" NOx_abs="246.680988" fuel_abs="193043.414927" electricity_abs="0"/>
    </tripinfo>
    <tripinfo id="veh13" depart="15.00" departLane="887815454#2_0" departPos="5.10" departSpeed="0.00" departDelay="0.54" arrival="153.00" arrivalLane="885395971#1_0" arrivalPos="36.73" arrivalSpeed="14.35" duration="138.00" routeLength="2596.21" waitingTime="0.00" waitingCount="0" stopTime="0.00" timeLoss="39.12" rerouteNo="1" devices="tripinfo_veh13 routing_veh13 emissions_veh13 fcd_veh13" vType="veh_passenger" speedFactor="1.12" vaporized="">
        <emissions CO_abs="14887.923100" CO2_abs="919566.308538" HC_abs="90.469601" PMx_abs="20.353521" NOx_abs="380.083143" fuel_abs="293296.948358" electricity_abs="0"/>
    </tripinfo>
    <tripinfo id="veh18" depart="21.00" departLane="885384073#5_1" departPos="5.10" departSpeed="0.00" departDelay="0.97" arrival="154.00" arrivalLane="-301007097#3_0" arrivalPos="53.23" arrivalSpeed="12.84" duration="133.00" routeLength="1919.95" waitingTime="0.00" waitingCount="0" stopTime="0.00" timeLoss="32.14" rerouteNo="1" devices="tripinfo_veh18 routing_veh18 emissions_veh18 fcd_veh18" vType="veh_passenger" speedFactor="0.94" vaporized="">
        <emissions CO_abs="9585.411016" CO2_abs="615178.011944" HC_abs="58.355518" PMx_abs="12.458517" NOx_abs="252.497614" fuel_abs="196212.480800" electricity_abs="0"/>
    </tripinfo>
    <tripinfo id="veh65" depart="73.00" departLane="-444802957#3_0" departPos="5.10" departSpeed="0.00" departDelay="0.69" arrival="156.00" arrivalLane="301007105_0" arrivalPos="92.34" arrivalSpeed="12.53" duration="83.00" routeLength="389.85" waitingTime="33.00" waitingCount="1" stopTime="0.00" timeLoss="42.37" rerouteNo="1" devices="tripinfo_veh65 routing_veh65 emissions_veh65 fcd_veh65" vType="veh_passenger" speedFactor="0.99" vaporized="">
        <emissions CO_abs="8696.498383" CO2_abs="229589.153029" HC_abs="44.859918" PMx_abs="4.651200" NOx_abs="98.217788" fuel_abs="73230.946735" electricity_abs="0"/>
    </tripinfo>
    <tripinfo id="veh79" depart="88.00" departLane="888157361#0_0" departPos="5.10" departSpeed="0.00" departDelay="0.11" arrival="158.00" arrivalLane="-444357950#7_0" arrivalPos="55.71" arrivalSpeed="27.85" duration="70.00" routeLength="717.25" waitingTime="9.00" waitingCount="1" stopTime="0.00" timeLoss="32.73" rerouteNo="1" devices="tripinfo_veh79 routing_veh79 emissions_veh79 fcd_veh79" vType="veh_passenger" speedFactor="1.03" vaporized="">
        <emissions CO_abs="7258.828081" CO2_abs="354411.110554" HC_abs="41.614264" PMx_abs="7.553454" NOx_abs="151.080958" fuel_abs="113040.714274" electricity_abs="0"/>
    </tripinfo>
    <tripinfo id="veh43" depart="48.00" departLane="-472714577#0_0" departPos="5.10" departSpeed="0.00" departDelay="0.16" arrival="159.00" arrivalLane="885354458_0" arrivalPos="111.75" arrivalSpeed="14.44" duration="111.00" routeLength="1289.68" waitingTime="0.00" waitingCount="0" stopTime="0.00" timeLoss="22.01" rerouteNo="1" devices="tripinfo_veh43 routing_veh43 emissions_veh43 fcd_veh43" vType="veh_passenger" speedFactor="1.09" vaporized="">
        <emissions CO_abs="7206.758798" CO2_abs="451742.919422" HC_abs="43.330555" PMx_abs="8.597524" NOx_abs="185.159822" fuel_abs="144084.909312" electricity_abs="0"/>
    </tripinfo>
    <tripinfo id="veh52" depart="58.00" departLane="119045603#2_0" departPos="5.10" departSpeed="0.00" departDelay="0.15" arrival="165.00" arrivalLane="-889203283_0" arrivalPos="33.72" arrivalSpeed="13.07" duration="107.00" routeLength="1916.67" waitingTime="0.00" waitingCount="0" stopTime="0.00" timeLoss="31.66" rerouteNo="1" devices="tripinfo_veh52 routing_veh52 emissions_veh52 fcd_veh52" vType="veh_passenger" speedFactor="1.17" vaporized="">
        <emissions CO_abs="12200.246967" CO2_abs="741862.915456" HC_abs="73.684208" PMx_abs="16.484723" NOx_abs="310.913692" fuel_abs="236617.935492" electricity_abs="0"/>
    </tripinfo>
    <tripinfo id="veh35" depart="39.00" departLane="885380939#0_0" departPos="5.10" departSpeed="0.00" departDelay="0.06" arrival="167.00" arrivalLane="889441218#0_1" arrivalPos="46.38" arrivalSpeed="17.13" duration="128.00" routeLength="2029.81" waitingTime="0.00" waitingCount="0" stopTime="0.00" timeLoss="37.37" rerouteNo="1" devices="tripinfo_veh35 routing_veh35 emissions_veh35 fcd_veh35" vType="veh_passenger" speedFactor="0.99" vaporized="">
        <emissions CO_abs="11091.514419" CO2_abs="727319.938441" HC_abs="68.028970" PMx_abs="15.142959" NOx_abs="301.122634" fuel_abs="231979.792030" electricity_abs="0"/>
    </tripinfo>
    <tripinfo id="veh117" depart="131.00" departLane="444361593#2_0" departPos="5.10" departSpeed="0.00" departDelay="0.84" arrival="169.00" arrivalLane="889138277#2_0" arrivalPos="22.25" arrivalSpeed="28.90" duration="38.00" routeLength="596.76" waitingTime="0.00" waitingCount="0" stopTime="0.00" timeLoss="14.08" rerouteNo="1" devices="tripinfo_veh117 routing_veh117 emissions_veh117 fcd_veh117" vType="veh_passenger" speedFactor="1.10" vaporized="">
        <emissions CO_abs="5513.462770" CO2_abs="325018.685385" HC_abs="33.071189" PMx_abs="7.266060" NOx_abs="139.811435" fuel_abs="103664.854873" electricity_abs="0"/>
    </tripinfo>
    <tripinfo id="veh49" depart="56.00" departLane="885380945#4_1" departPos="5.10" departSpeed="0.00" departDelay="1.49" arrival="170.00" arrivalLane="447791042_0" arrivalPos="36.25" arrivalSpeed="24.23" duration="114.00" routeLength="2149.71" waitingTime="0.00" waitingCount="0" stopTime="0.00" timeLoss="21.74" rerouteNo="1" devices="tripinfo_veh49 routing_veh49 emissions_veh49 fcd_veh49" vType="veh_passenger" speedFactor="0.88" vaporized="">
        <emissions CO_abs="7643.056051" CO2_abs="594712.511382" HC_abs="48.657460" PMx_abs="11.691966" NOx_abs="233.611205" fuel_abs="189684.787445" electricity_abs="0"/>
    </tripinfo>
    <tripinfo id="veh61" depart="68.00" departLane="-119045603#0_0" departPos="5.10" departSpeed="0.00" departDelay="0.14" arrival="170.00" arrivalLane="-889135582#1_0" arrivalPos="62.72" arrivalSpeed="13.42" duration="102.00" routeLength="1906.13" waitingTime="0.00" waitingCount="0" stopTime="0.00" timeLoss="23.83" rerouteNo="1" devices="tripinfo_veh61 routing_veh61 emissions_veh61 fcd_veh61" vType="veh_passenger" speedFactor="0.97" vaporized="">
        <emissions CO_abs="9559.950190" CO2_abs="646670.736141" HC_abs="59.372426" PMx_abs="13.804812" NOx_abs="265.560700" fuel_abs="206256.398779" electricity_abs="0"/>
    </tripinfo>
    <tripinfo id="veh62" depart="69.00" departLane="888160862_0" departPos="5.10" departSpeed="0.00" departDelay="0.02" arrival="178.00" arrivalLane="888155727#0_0" arrivalPos="55.73" arrivalSpeed="13.82" duration="109.00" routeLength="987.71" waitingTime="21.00" waitingCount="2" stopTime="0.00" timeLoss="50.30" rerouteNo="1" devices="tripinfo_veh62 routing_veh62 emissions_veh62 fcd_veh62" vType="veh_passenger" speedFactor="1.08" vaporized="">
        <emissions CO_abs="10173.001666" CO2_abs="456886.976136" HC_abs="57.061108" PMx_abs="9.305603" NOx_abs="194.093216" fuel_abs="145726.573069" electricity_abs="0"/>
    </tripinfo>
    <tripinfo id="veh53" depart="59.00" departLane="888160860#1_0" departPos="5.10" departSpeed="0.00" departDelay="0.04" arrival="179.00" arrivalLane="888155716#1_0" arrivalPos="0.20" arrivalSpeed="10.46" duration="120.00" routeLength="1351.62" waitingTime="23.00" waitingCount="1" stopTime="0.00" timeLoss="48.04" rerouteNo="1" devices="tripinfo_veh53 routing_veh53 emissions_veh53 fcd_veh53" vType="veh_passenger" speedFactor="1.02" vaporized="">
        <emissions CO_abs="11024.680354" CO2_abs="531088.889705" HC_abs="62.741205" PMx_abs="11.001831" NOx_abs="222.053906" fuel_abs="169393.326979" electricity_abs="0"/>
    </tripinfo>
    <tripinfo id="veh99" depart="117.00" departLane="-889504806#4_0" departPos="5.10" departSpeed="0.00" departDelay="6.86" arrival="183.00" arrivalLane="-326546173#1_0" arrivalPos="166.59" arrivalSpeed="7.99" duration="66.00" routeLength="840.02" waitingTime="0.00" waitingCount="0" stopTime="0.00" timeLoss="17.69" rerouteNo="1" devices="tripinfo_veh99 routing_veh99 emissions_veh99 fcd_veh99" vType="veh_passenger" speedFactor="1.01" vaporized="">
        <emissions CO_abs="5002.014597" CO2_abs="301308.251950" HC_abs="29.988492" PMx_abs="6.071228" NOx_abs="124.349728" fuel_abs="96103.143861" electricity_abs="0"/>
    </tripinfo>
    <tripinfo id="veh59" depart="66.00" departLane="-887771598#2_0" departPos="5.10" departSpeed="0.00" departDelay="0.36" arrival="184.00" arrivalLane="447791038#0_0" arrivalPos="166.36" arrivalSpeed="24.82" duration="118.00" routeLength="821.57" waitingTime="62.00" waitingCount="1" stopTime="0.00" timeLoss="79.10" rerouteNo="1" devices="tripinfo_veh59 routing_veh59 emissions_veh59 fcd_veh59" vType="veh_passenger" speedFactor="1.14" vaporized="">
        <emissions CO_abs="15550.725267" CO2_abs="500823.655962" HC_abs="82.736616" PMx_abs="11.085328" NOx_abs="215.749552" fuel_abs="159742.430144" electricity_abs="0"/>
    </tripinfo>
    <tripinfo id="veh23" depart="26.00" departLane="-889138277#0_0" departPos="5.10" departSpeed="0.00" departDelay="0.41" arrival="185.00" arrivalLane="-885768928_0" arrivalPos="57.14" arrivalSpeed="13.26" duration="159.00" routeLength="2378.17" waitingTime="0.00" waitingCount="0" stopTime="0.00" timeLoss="33.47" rerouteNo="1" devices="tripinfo_veh23 routing_veh23 emissions_veh23 fcd_veh23" vType="veh_passenger" speedFactor="0.97" vaporized="">
        <emissions CO_abs="11423.216031" CO2_abs="759537.772420" HC_abs="70.310582" PMx_abs="15.227150" NOx_abs="308.872476" fuel_abs="242256.448933" electricity_abs="0"/>
    </tripinfo>
    <tripinfo id="veh66" depart="74.00" departLane="444357950#6_0" departPos="5.10" departSpeed="0.00" departDelay="0.57" arrival="185.00" arrivalLane="885773074_0" arrivalPos="52.00" arrivalSpeed="11.76" duration="111.00" routeLength="1807.55" waitingTime="0.00" waitingCount="0" stopTime="0.00" timeLoss="26.27" rerouteNo="1" devices="tripinfo_veh66 routing_veh66 emissions_veh66 fcd_veh66" vType="veh_passenger" speedFactor="0.94" vaporized="">
        <emissions CO_abs="8550.827450" CO2_abs="580727.539749" HC_abs="52.776149" PMx_abs="11.892295" NOx_abs="237.347254" fuel_abs="185224.077006" electricity_abs="0"/>
    </tripinfo>
    <tripinfo id="veh58" depart="65.00" departLane="-885768921#3_0" departPos="5.10" departSpeed="0.00" departDelay="0.47" arrival="188.00" arrivalLane="447791043#1_0" arrivalPos="217.94" arrivalSpeed="24.27" duration="123.00" routeLength="864.61" waitingTime="41.00" waitingCount="1" stopTime="0.00" timeLoss="59.16" rerouteNo="1" devices="tripinfo_veh58 routing_veh58 emissions_veh58 fcd_veh58" vType="veh_passenger" speedFactor="0.90" vaporized="">
        <emissions CO_abs="11908.630381" CO2_abs="434025.159138" HC_abs="64.293715" PMx_abs="8.690685" NOx_abs="182.809140" fuel_abs="138436.311037" electricity_abs="0"/>
    </tripinfo>
    <tripinfo id="veh109" depart="123.00" departLane="444357950#10_0" departPos="5.10" departSpeed="0.00" departDelay="1.74" arrival="191.00" arrivalLane="-888157365_0" arrivalPos="43.97" arrivalSpeed="13.08" duration="68.00" routeLength="548.92" waitingTime="0.00" waitingCount="0" stopTime="0.00" timeLoss="18.56" rerouteNo="1" devices="tripinfo_veh109 routing_veh109 emissions_veh109 fcd_veh109" vType="veh_passenger" speedFactor="1.01" vaporized="">
        <emissions CO_abs="4611.223170" CO2_abs="231255.302519" HC_abs="26.440835" PMx_abs="4.332145" NOx_abs="96.800783" fuel_abs="73760.157263" electricity_abs="0"/>
    </tripinfo>
    <tripinfo id="veh54" depart="61.00" departLane="444357950#0_0" departPos="5.10" departSpeed="0.00" departDelay="0.92" arrival="194.00" arrivalLane="-885389925_0" arrivalPos="50.54" arrivalSpeed="13.97" duration="133.00" routeLength="2524.33" waitingTime="0.00" waitingCount="0" stopTime="0.00" timeLoss="38.54" rerouteNo="1" devices="tripinfo_veh54 routing_veh54 emissions_veh54 fcd_veh54" vType="veh_passenger" speedFactor="1.10" vaporized="">
        <emissions CO_abs="13918.184732" CO2_abs="886803.163807" HC_abs="85.106691" PMx_abs="19.530691" NOx_abs="369.652054" fuel_abs="282846.609110" electricity_abs="0"/>
    </tripinfo>
    <tripinfo id="veh111" depart="124.00" departLane="444509134#1_0" departPos="3.11" departSpeed="0.00" departDelay="0.51" arrival="195.00" arrivalLane="-885395971#1_0" arrivalPos="37.69" arrivalSpeed="14.48" duration="71.00" routeLength="1084.82" waitingTime="0.00" waitingCount="0" stopTime="0.00" timeLoss="29.21" rerouteNo="1" devices="tripinfo_veh111 routing_veh111 emissions_veh111 fcd_veh111" vType="veh_passenger" speedFactor="1.06" vaporized="">
        <emissions CO_abs="7471.615588" CO2_abs="451179.648538" HC_abs="44.988593" PMx_abs="9.796891" NOx_abs="191.293078" fuel_abs="143904.226298" electricity_abs="0"/>
    </tripinfo>
    <tripinfo id="veh90" depart="101.00" departLane="885409871#5_0" departPos="5.10" departSpeed="0.00" departDelay="0.87" arrival="197.00" arrivalLane="119045605#3_1" arrivalPos="314.97" arrivalSpeed="28.40" duration="96.00" routeLength="1506.92" waitingTime="2.00" waitingCount="1" stopTime="0.00" timeLoss="39.57" rerouteNo="1" devices="tripinfo_veh90 routing_veh90 emissions_veh90 fcd_veh90" vType="veh_passenger" speedFactor="1.04" vaporized="">
        <emissions CO_abs="11062.154445" CO2_abs="650512.204130" HC_abs="66.258785" PMx_abs="14.260399" NOx_abs="274.272154" fuel_abs="207481.775907" electricity_abs="0"/>
    </tripinfo>
    <tripinfo id="veh56" depart="63.00" departLane="-888157369_0" departPos="5.10" departSpeed="0.00" departDelay="0.70" arrival="203.00" arrivalLane="885380946#2_1" arrivalPos="81.88" arrivalSpeed="19.25" duration="140.00" routeLength="999.27" waitingTime="57.00" waitingCount="3" stopTime="0.00" timeLoss="85.33" rerouteNo="1" devices="tripinfo_veh56 routing_veh56 emissions_veh56 fcd_veh56" vType="veh_passenger" speedFactor="1.00" vaporized="">
        <emissions CO_abs="15665.656924" CO2_abs="511057.671324" HC_abs="83.178479" PMx_abs="10.836095" NOx_abs="217.736139" fuel_abs="163006.962088" electricity_abs="0"/>
    </tripinfo>
    <tripinfo id="veh78" depart="87.00" departLane="-887775249#0_0" departPos="5.10" departSpeed="0.00" departDelay="0.22" arrival="204.00" arrivalLane="889119747#3_0" arrivalPos="59.47" arrivalSpeed="12.93" duration="117.00" routeLength="1932.51" waitingTime="0.00" waitingCount="0" stopTime="0.00" timeLoss="28.30" rerouteNo="1" devices="tripinfo_veh78 routing_veh78 emissions_veh78 fcd_veh78" vType="veh_passenger" speedFactor="0.98" vaporized="">
        <emissions CO_abs="9430.828676" CO2_abs="617599.634000" HC_abs="57.886315" PMx_abs="12.825421" NOx_abs="253.015421" fuel_abs="196984.569349" electricity_abs="0"/>
    </tripinfo>
    <tripinfo id="veh1" depart="2.00" departLane="-888155727#0_0" departPos="5.10" departSpeed="0.00" departDelay="0.89" arrival="205.00" arrivalLane="887771598#3_0" arrivalPos="108.60" arrivalSpeed="12.01" duration="203.00" routeLength="1253.77" waitingTime="85.00" waitingCount="1" stopTime="0.00" timeLoss="117.15" rerouteNo="1" devices="tripinfo_veh1 routing_veh1 emissions_veh1 fcd_veh1" vType="veh_passenger" speedFactor="0.94" vaporized="">
        <emissions CO_abs="21701.739896" CO2_abs="688511.264521" HC_abs="114.884591" PMx_abs="14.371841" NOx_abs="294.955747" fuel_abs="219608.052736" electricity_abs="0"/>
    </tripinfo>
    <tripinfo id="veh81" depart="91.00" departLane="-885768951_0" departPos="5.10" departSpeed="0.00" departDelay="0.89" arrival="205.00" arrivalLane="-840315695#1_0" arrivalPos="100.28" arrivalSpeed="13.91" duration="114.00" routeLength="1687.50" waitingTime="0.00" waitingCount="0" stopTime="0.00" timeLoss="37.30" rerouteNo="1" devices="tripinfo_veh81 routing_veh81 emissions_veh81 fcd_veh81" vType="veh_passenger" speedFactor="1.01" vaporized="">
        <emissions CO_abs="10657.674319" CO2_abs="660827.418171" HC_abs="64.606144" PMx_abs="14.072553" NOx_abs="277.674741" fuel_abs="210771.798662" electricity_abs="0"/>
    </tripinfo>
    <tripinfo id="veh28" depart="32.00" departLane="891820957#0_0" departPos="5.10" departSpeed="0.00" departDelay="0.85" arrival="206.00" arrivalLane="885380937#2_1" arrivalPos="203.01" arrivalSpeed="25.96" duration="174.00" routeLength="2070.47" waitingTime="0.00" waitingCount="0" stopTime="0.00" timeLoss="28.11" rerouteNo="1" devices="tripinfo_veh28 routing_veh28 emissions_veh28 fcd_veh28" vType="veh_passenger" speedFactor="0.95" vaporized="">
        <emissions CO_abs="10307.208685" CO2_abs="628163.831598" HC_abs="61.584845" PMx_abs="11.656638" NOx_abs="251.214600" fuel_abs="200355.777387" electricity_abs="0"/>
    </tripinfo>
    <tripinfo id="veh88" depart="98.00" departLane="-891208434#10_1" departPos="5.10" departSpeed="0.00" departDelay="0.10" arrival="206.00" arrivalLane="889119741#0_0" arrivalPos="107.98" arrivalSpeed="13.43" duration="108.00" routeLength="1718.11" waitingTime="5.00" waitingCount="1" stopTime="0.00" timeLoss="25.48" rerouteNo="1" devices="tripinfo_veh88 routing_veh88 emissions_veh88 fcd_veh88" vType="veh_passenger" speedFactor="0.98" vaporized="">
        <emissions CO_abs="8793.155167" CO2_abs="531182.699088" HC_abs="52.642011" PMx_abs="10.908844" NOx_abs="215.718530" fuel_abs="169422.334985" electricity_abs="0"/>
    </tripinfo>
    <tripinfo id="veh129" depart="149.00" departLane="720356475#4_1" departPos="5.10" departSpeed="0.00" departDelay="5.49" arrival="210.00" arrivalLane="891826630_0" arrivalPos="13.68" arrivalSpeed="14.69" duration="61.00" routeLength="945.80" waitingTime="0.00" waitingCount="0" stopTime="0.00" timeLoss="22.98" rerouteNo="1" devices="tripinfo_veh129 routing_veh129 emissions_veh129 fcd_veh129" vType="veh_passenger" speedFactor="1.03" vaporized="">
        <emissions CO_abs="6459.418521" CO2_abs="398863.099896" HC_abs="39.089589" PMx_abs="8.609812" NOx_abs="169.228329" fuel_abs="127217.736100" electricity_abs="0"/>
    </tripinfo>
    <tripinfo id="veh122" depart="136.00" departLane="444357950#9_0" departPos="5.10" departSpeed="0.00" departDelay="0.27" arrival="211.00" arrivalLane="-301007089#1_0" arrivalPos="27.39" arrivalSpeed="13.65" duration="75.00" routeLength="867.66" waitingTime="0.00" waitingCount="0" stopTime="0.00" timeLoss="20.26" rerouteNo="1" devices="tripinfo_veh122 routing_veh122 emissions_veh122 fcd_veh122" vType="veh_passenger" speedFactor="1.07" vaporized="">
        <emissions CO_abs="4692.847878" CO2_abs="311894.607953" HC_abs="28.476735" PMx_abs="5.771283" NOx_abs="128.449976" fuel_abs="99479.689175" electricity_abs="0"/>
    </tripinfo>